Pt    ONCVPSP-4.0.1  r_core=   1.77683   2.76628   3.09925   2.06345
     78.0000     18.0000      201009    zatom,zion,pspd
     8      11   3     4   600     0    pspcod,pspxc,lmax,lloc,mmax,r2well
  5.99000000  0.00000000  0.00000000    rchrg fchrg qchrg
     2     2     2     2     0    nproj
     1     1           extension_switch
   0                         8.0890638684435E+00  1.4337739751818E+00
     1  0.0000000000000E+00  2.0100698883141E-10 -5.0380614263767E-10
     2  1.0000000000000E-02  5.8811211381347E-02 -7.5559511964638E-03
     3  2.0000000000000E-02  1.1754652233241E-01 -1.5106093929394E-02
     4  3.0000000000000E-02  1.7612989640202E-01 -2.2644001082982E-02
     5  4.0000000000000E-02  2.3448502889230E-01 -3.0162018040757E-02
     6  5.0000000000000E-02  2.9253522217118E-01 -3.7650673314902E-02
     7  6.0000000000000E-02  3.5020327216330E-01 -4.5098118068703E-02
     8  7.0000000000000E-02  4.0741136950647E-01 -5.2489603563967E-02
     9  8.0000000000000E-02  4.6408101865985E-01 -5.9807005061458E-02
    10  9.0000000000000E-02  5.2013297800344E-01 -6.7028400084726E-02
    11  1.0000000000000E-01  5.7548722367985E-01 -7.4127708234024E-02
    12  1.1000000000000E-01  6.3006293960164E-01 -8.1074398916524E-02
    13  1.2000000000000E-01  6.8377853568557E-01 -8.7833272452150E-02
    14  1.3000000000000E-01  7.3655169598299E-01 -9.4364319032707E-02
    15  1.4000000000000E-01  7.8829945795851E-01 -1.0062265896806E-01
    16  1.5000000000000E-01  8.3893832373244E-01 -1.0655856656030E-01
    17  1.6000000000000E-01  8.8838440365161E-01 -1.1211757881916E-01
    18  1.7000000000000E-01  9.3655359209359E-01 -1.1724068908379E-01
    19  1.8000000000000E-01  9.8336177494820E-01 -1.2186462446267E-01
    20  1.9000000000000E-01  1.0287250677612E+00 -1.2592220485884E-01
    21  2.0000000000000E-01  1.0725600830767E+00 -1.2934278022815E-01
    22  2.1000000000000E-01  1.1147842250806E+00 -1.3205274163678E-01
    23  2.2000000000000E-01  1.1553160092350E+00 -1.3397610065648E-01
    24  2.3000000000000E-01  1.1940754042063E+00 -1.3503513067467E-01
    25  2.4000000000000E-01  1.2309841930347E+00 -1.3515106281444E-01
    26  2.5000000000000E-01  1.2659663501743E+00 -1.3424482836878E-01
    27  2.6000000000000E-01  1.2989484307520E+00 -1.3223783896449E-01
    28  2.7000000000000E-01  1.3298599681622E+00 -1.2905279509380E-01
    29  2.8000000000000E-01  1.3586338759235E+00 -1.2461451319319E-01
    30  2.9000000000000E-01  1.3852068495896E+00 -1.1885076111710E-01
    31  3.0000000000000E-01  1.4095197644189E+00 -1.1169309165254E-01
    32  3.1000000000000E-01  1.4315180644783E+00 -1.0307766365327E-01
    33  3.2000000000000E-01  1.4511521388786E+00 -9.2946040440948E-02
    34  3.3000000000000E-01  1.4683776809145E+00 -8.1245955324466E-02
    35  3.4000000000000E-01  1.4831560260163E+00 -6.7932034425937E-02
    36  3.5000000000000E-01  1.4954544645994E+00 -5.2966467469484E-02
    37  3.6000000000000E-01  1.5052465261334E+00 -3.6319617780357E-02
    38  3.7000000000000E-01  1.5125122310321E+00 -1.7970563450828E-02
    39  3.8000000000000E-01  1.5172383072893E+00  2.0924375532804E-03
    40  3.9000000000000E-01  1.5194183691517E+00  2.3871564655874E-02
    41  4.0000000000000E-01  1.5190530555186E+00  4.7359139611607E-02
    42  4.1000000000000E-01  1.5161501261898E+00  7.2537423356165E-02
    43  4.2000000000000E-01  1.5107245145389E+00  9.9378507860886E-02
    44  4.3000000000000E-01  1.5027983356653E+00  1.2784430490483E-01
    45  4.4000000000000E-01  1.4924008495653E+00  1.5788663246602E-01
    46  4.5000000000000E-01  1.4795683793618E+00  1.8944739820790E-01
    47  4.6000000000000E-01  1.4643441851250E+00  2.2245887831431E-01
    48  4.7000000000000E-01  1.4467782943104E+00  2.5684408872211E-01
    49  4.8000000000000E-01  1.4269272903174E+00  2.9251724463203E-01
    50  4.9000000000000E-01  1.4048540611333E+00  3.2938430306022E-01
    51  5.0000000000000E-01  1.3806275104612E+00  3.6734358214223E-01
    52  5.1000000000000E-01  1.3543222341367E+00  4.0628644993073E-01
    53  5.2000000000000E-01  1.3260181650087E+00  4.4609807455315E-01
    54  5.3000000000000E-01  1.2958001897845E+00  4.8665822682700E-01
    55  5.4000000000000E-01  1.2637577416267E+00  5.2784212578080E-01
    56  5.5000000000000E-01  1.2299843725202E+00  5.6952131700635E-01
    57  5.6000000000000E-01  1.1945773096111E+00  6.1156457338143E-01
    58  5.7000000000000E-01  1.1576369998443E+00  6.5383880745736E-01
    59  5.8000000000000E-01  1.1192666472983E+00  6.9620998470700E-01
    60  5.9000000000000E-01  1.0795717476251E+00  7.3854402687783E-01
    61  6.0000000000000E-01  1.0386596239605E+00  7.8070769489284E-01
    62  6.1000000000000E-01  9.9663896856327E-01  8.2256944108506E-01
    63  6.2000000000000E-01  9.5361939428334E-01  8.6400022103878E-01
    64  6.3000000000000E-01  9.0971099974700E-01  9.0487425593257E-01
    65  6.4000000000000E-01  8.6502395187964E-01  9.4506973703087E-01
    66  6.5000000000000E-01  8.1966808907652E-01  9.8446946484043E-01
    67  6.6000000000000E-01  7.7375254797630E-01  1.0229614164250E+00
    68  6.7000000000000E-01  7.2738541639879E-01  1.0604392354417E+00
    69  6.8000000000000E-01  6.8067341458274E-01  1.0968026406131E+00
    70  6.9000000000000E-01  6.3372160640771E-01  1.1319577495601E+00
    71  7.0000000000000E-01  5.8663314181143E-01  1.1658173161814E+00
    72  7.1000000000000E-01  5.3950903112964E-01  1.1983008810503E+00
    73  7.2000000000000E-01  4.9244795159352E-01  1.2293348355986E+00
    74  7.3000000000000E-01  4.4554608573043E-01  1.2588524021409E+00
    75  7.4000000000000E-01  3.9889699093176E-01  1.2867935330576E+00
    76  7.5000000000000E-01  3.5259149898579E-01  1.3131047336632E+00
    77  7.6000000000000E-01  3.0671764393039E-01  1.3377388144367E+00
    78  7.7000000000000E-01  2.6136061616611E-01  1.3606545793572E+00
    79  7.8000000000000E-01  2.1660274039255E-01  1.3818164580530E+00
    80  7.9000000000000E-01  1.7252347459426E-01  1.4011940903283E+00
    81  8.0000000000000E-01  1.2919942701295E-01  1.4187618723533E+00
    82  8.1000000000000E-01  8.6704387805729E-02  1.4344984743926E+00
    83  8.2000000000000E-01  4.5109371906858E-02  1.4483863403786E+00
    84  8.3000000000000E-01  4.4826694879547E-03  1.4604111799167E+00
    85  8.4000000000000E-01 -3.5110099649796E-02  1.4705614634207E+00
    86  8.5000000000000E-01 -7.3605931416608E-02  1.4788279310209E+00
    87  8.6000000000000E-01 -1.1094438610851E-01  1.4852031256676E+00
    88  8.7000000000000E-01 -1.4706754388773E-01  1.4896809604582E+00
    89  8.8000000000000E-01 -1.8191997035236E-01  1.4922563296623E+00
    90  8.9000000000000E-01 -2.1544869522943E-01  1.4929247722093E+00
    91  9.0000000000000E-01 -2.4760320692115E-01  1.4916821955373E+00
    92  9.1000000000000E-01 -2.7833546527671E-01  1.4885246667075E+00
    93  9.2000000000000E-01 -3.0759993455810E-01  1.4834482765607E+00
    94  9.3000000000000E-01 -3.3535363812312E-01  1.4764490814606E+00
    95  9.4000000000000E-01 -3.6155623586798E-01  1.4675231258419E+00
    96  9.5000000000000E-01 -3.8617012496379E-01  1.4566665473790E+00
    97  9.6000000000000E-01 -4.0916056389230E-01  1.4438757651370E+00
    98  9.7000000000000E-01 -4.3049581924532E-01  1.4291477495791E+00
    99  9.8000000000000E-01 -4.5014733420652E-01  1.4124803718033E+00
   100  9.9000000000000E-01 -4.6808991709406E-01  1.3938728278930E+00
   101  1.0000000000000E+00 -4.8430194781413E-01  1.3733261328113E+00
   102  1.0100000000000E+00 -4.9876559956904E-01  1.3508436768688E+00
   103  1.0200000000000E+00 -5.1146707268678E-01  1.3264318364726E+00
   104  1.0300000000000E+00 -5.2239683700009E-01  1.3001006296420E+00
   105  1.0400000000000E+00 -5.3154987880905E-01  1.2718644056697E+00
   106  1.0500000000000E+00 -5.3892594812021E-01  1.2417425573439E+00
   107  1.0600000000000E+00 -5.4452980157235E-01  1.2097602433294E+00
   108  1.0700000000000E+00 -5.4837143624068E-01  1.1759491076646E+00
   109  1.0800000000000E+00 -5.5046630936221E-01  1.1403479828671E+00
   110  1.0900000000000E+00 -5.5083553894812E-01  1.1030035628696E+00
   111  1.1000000000000E+00 -5.4950608024858E-01  1.0639710319361E+00
   112  1.1100000000000E+00 -5.4651087311155E-01  1.0233146358401E+00
   113  1.1200000000000E+00 -5.4188895543216E-01  9.8110818192515E-01
   114  1.1300000000000E+00 -5.3568553812030E-01  9.3743545520854E-01
   115  1.1400000000000E+00 -5.2795203732295E-01  8.9239053843497E-01
   116  1.1500000000000E+00 -5.1874606001715E-01  8.4607802492106E-01
   117  1.1600000000000E+00 -5.0813133954066E-01  7.9861311415536E-01
   118  1.1700000000000E+00 -4.9617761814005E-01  7.5012158140755E-01
   119  1.1800000000000E+00 -4.8296047418875E-01  7.0073961405066E-01
   120  1.1900000000000E+00 -4.6856109235081E-01  6.5061350888558E-01
   121  1.2000000000000E+00 -4.5306597563155E-01  5.9989922645876E-01
   122  1.2100000000000E+00 -4.3656659896046E-01  5.4876180017061E-01
   123  1.2200000000000E+00 -4.1915900467478E-01  4.9737459983492E-01
   124  1.2300000000000E+00 -4.0094334101982E-01  4.4591845128042E-01
   125  1.2400000000000E+00 -3.8202334552806E-01  3.9458061552011E-01
   126  1.2500000000000E+00 -3.6250577588434E-01  3.4355363295104E-01
   127  1.2600000000000E+00 -3.4249979161608E-01  2.9303403995634E-01
   128  1.2700000000000E+00 -3.2211629064957E-01  2.4322096711913E-01
   129  1.2800000000000E+00 -3.0146720544424E-01  1.9431463002167E-01
   130  1.2900000000000E+00 -2.8066476404130E-01  1.4651472525191E-01
   131  1.3000000000000E+00 -2.5982072193102E-01  1.0001874574818E-01
   132  1.3100000000000E+00 -2.3904557115064E-01  5.5020230970607E-02
   133  1.3200000000000E+00 -2.1844773345981E-01  1.1706968562793E-02
   134  1.3300000000000E+00 -1.9813274479673E-01 -2.9740834855747E-02
   135  1.3400000000000E+00 -1.7820243849073E-01 -6.9152395362487E-02
   136  1.3500000000000E+00 -1.5875413489068E-01 -1.0636818692607E-01
   137  1.3600000000000E+00 -1.3987984515781E-01 -1.4124175088046E-01
   138  1.3700000000000E+00 -1.2166549696580E-01 -1.7364146038069E-01
   139  1.3800000000000E+00 -1.0419018974840E-01 -2.0345222073301E-01
   140  1.3900000000000E+00 -8.7525486934154E-02 -2.3057708693425E-01
   141  1.4000000000000E+00 -7.1734752257081E-02 -2.5493878062277E-01
   142  1.4100000000000E+00 -5.6872536575520E-02 -2.7648109041228E-01
   143  1.4200000000000E+00 -4.2984028856434E-02 -2.9517011560589E-01
   144  1.4300000000000E+00 -3.0104549568222E-02 -3.1099542871424E-01
   145  1.4400000000000E+00 -1.8259809349074E-02 -3.2396878836738E-01
   146  1.4500000000000E+00 -7.4670786224067E-03 -3.3412004562982E-01
   147  1.4600000000000E+00  2.2644619514208E-03 -3.4149596691465E-01
   148  1.4700000000000E+00  1.0933747600911E-02 -3.4616038579885E-01
   149  1.4800000000000E+00  1.8547759356724E-02 -3.4819409698483E-01
   150  1.4900000000000E+00  2.5121384652601E-02 -3.4769458260594E-01
   151  1.5000000000000E+00  3.0677203401432E-02 -3.4477555269002E-01
   152  1.5100000000000E+00  3.5245200739691E-02 -3.3956630248853E-01
   153  1.5200000000000E+00  3.8862408197060E-02 -3.3221089055691E-01
   154  1.5300000000000E+00  4.1572475863632E-02 -3.2286714353709E-01
   155  1.5400000000000E+00  4.3425178977060E-02 -3.1170549578417E-01
   156  1.5500000000000E+00  4.4475863174209E-02 -2.9890767410082E-01
   157  1.5600000000000E+00  4.4784833373752E-02 -2.8466523968108E-01
   158  1.5700000000000E+00  4.4416692009601E-02 -2.6917800132790E-01
   159  1.5800000000000E+00  4.3439632957241E-02 -2.5265231560294E-01
   160  1.5900000000000E+00  4.1924698099654E-02 -2.3529929114383E-01
   161  1.6000000000000E+00  3.9945003955806E-02 -2.1733291560895E-01
   162  1.6100000000000E+00  3.7574946250735E-02 -1.9896812491544E-01
   163  1.6200000000000E+00  3.4889390618427E-02 -1.8041883524886E-01
   164  1.6300000000000E+00  3.1962857858677E-02 -1.6189595893334E-01
   165  1.6400000000000E+00  2.8868712342167E-02 -1.4360542573457E-01
   166  1.6500000000000E+00  2.5678362165405E-02 -1.2574623119994E-01
   167  1.6600000000000E+00  2.2460481457073E-02 -1.0850853884631E-01
   168  1.6700000000000E+00  1.9280243589828E-02 -9.2071801418751E-02
   169  1.6800000000000E+00  1.6198664502401E-02 -7.6603178185285E-02
   170  1.6900000000000E+00  1.3271612080618E-02 -6.2255001254729E-02
   171  1.7000000000000E+00  1.0547108954515E-02 -4.9157193381869E-02
   172  1.7100000000000E+00  8.0693723733435E-03 -3.7429034596386E-02
   173  1.7200000000000E+00  5.8783175089528E-03 -2.7178192843505E-02
   174  1.7300000000000E+00  4.0062410414063E-03 -1.8491497960061E-02
   175  1.7400000000000E+00  2.4778613981289E-03 -1.1435145832817E-02
   176  1.7500000000000E+00  1.3104704241758E-03 -6.0560376978142E-03
   177  1.7600000000000E+00  5.0908371662858E-04 -2.3593634557376E-03
   178  1.7700000000000E+00  9.0433289740764E-05 -4.2107097385420E-04
   179  1.7800000000000E+00 -9.4202093413283E-06  4.4001529417267E-05
   180  1.7900000000000E+00  2.3029336457057E-06 -1.0732167396169E-05
   181  1.80 -0.  0.
   182  1.81 -0.  0.
   183  1.82  0.  0.
   184  1.83  0.  0.
   185  1.84  0.  0.
   186  1.85  0.  0.
   187  1.86  0.  0.
   188  1.87  0.  0.
   189  1.88  0.  0.
   190  1.89  0.  0.
   191  1.90  0.  0.
   192  1.91  0.  0.
   193  1.92  0.  0.
   194  1.93  0.  0.
   195  1.94  0.  0.
   196  1.95  0.  0.
   197  1.96  0.  0.
   198  1.97  0.  0.
   199  1.98  0.  0.
   200  1.99  0.  0.
   201  2.00  0.  0.
   202  2.01  0.  0.
   203  2.02  0.  0.
   204  2.03  0.  0.
   205  2.04  0.  0.
   206  2.05  0.  0.
   207  2.06  0.  0.
   208  2.07  0.  0.
   209  2.08  0.  0.
   210  2.09  0.  0.
   211  2.10  0.  0.
   212  2.11  0.  0.
   213  2.12  0.  0.
   214  2.13  0.  0.
   215  2.14  0.  0.
   216  2.15  0.  0.
   217  2.16  0.  0.
   218  2.17  0.  0.
   219  2.18  0.  0.
   220  2.19  0.  0.
   221  2.20  0.  0.
   222  2.21  0.  0.
   223  2.22  0.  0.
   224  2.23  0.  0.
   225  2.24  0.  0.
   226  2.25  0.  0.
   227  2.26  0.  0.
   228  2.27  0.  0.
   229  2.28  0.  0.
   230  2.29  0.  0.
   231  2.30  0.  0.
   232  2.31  0.  0.
   233  2.32  0.  0.
   234  2.33  0.  0.
   235  2.34  0.  0.
   236  2.35  0.  0.
   237  2.36  0.  0.
   238  2.37  0.  0.
   239  2.38  0.  0.
   240  2.39  0.  0.
   241  2.40  0.  0.
   242  2.41  0.  0.
   243  2.42  0.  0.
   244  2.43  0.  0.
   245  2.44  0.  0.
   246  2.45  0.  0.
   247  2.46  0.  0.
   248  2.47  0.  0.
   249  2.48  0.  0.
   250  2.49  0.  0.
   251  2.50  0.  0.
   252  2.51  0.  0.
   253  2.52  0.  0.
   254  2.53  0.  0.
   255  2.54  0.  0.
   256  2.55  0.  0.
   257  2.56  0.  0.
   258  2.57  0.  0.
   259  2.58  0.  0.
   260  2.59  0.  0.
   261  2.60  0.  0.
   262  2.61  0.  0.
   263  2.62  0.  0.
   264  2.63  0.  0.
   265  2.64  0.  0.
   266  2.65  0.  0.
   267  2.66  0.  0.
   268  2.67  0.  0.
   269  2.68  0.  0.
   270  2.69  0.  0.
   271  2.70  0.  0.
   272  2.71  0.  0.
   273  2.72  0.  0.
   274  2.73  0.  0.
   275  2.74  0.  0.
   276  2.75  0.  0.
   277  2.76  0.  0.
   278  2.77  0.  0.
   279  2.78  0.  0.
   280  2.79  0.  0.
   281  2.80  0.  0.
   282  2.81  0.  0.
   283  2.82  0.  0.
   284  2.83  0.  0.
   285  2.84  0.  0.
   286  2.85  0.  0.
   287  2.86  0.  0.
   288  2.87  0.  0.
   289  2.88  0.  0.
   290  2.89  0.  0.
   291  2.90  0.  0.
   292  2.91  0.  0.
   293  2.92  0.  0.
   294  2.93  0.  0.
   295  2.94  0.  0.
   296  2.95  0.  0.
   297  2.96  0.  0.
   298  2.97  0.  0.
   299  2.98  0.  0.
   300  2.99  0.  0.
   301  3.00  0.  0.
   302  3.01  0.  0.
   303  3.02  0.  0.
   304  3.03  0.  0.
   305  3.04  0.  0.
   306  3.05  0.  0.
   307  3.06  0.  0.
   308  3.07  0.  0.
   309  3.08  0.  0.
   310  3.09  0.  0.
   311  3.10  0.  0.
   312  3.11  0.  0.
   313  3.12  0.  0.
   314  3.13  0.  0.
   315  3.14  0.  0.
   316  3.15  0.  0.
   317  3.16  0.  0.
   318  3.17  0.  0.
   319  3.18  0.  0.
   320  3.19  0.  0.
   321  3.20  0.  0.
   322  3.21  0.  0.
   323  3.22  0.  0.
   324  3.23  0.  0.
   325  3.24  0.  0.
   326  3.25  0.  0.
   327  3.26  0.  0.
   328  3.27  0.  0.
   329  3.28  0.  0.
   330  3.29  0.  0.
   331  3.30  0.  0.
   332  3.31  0.  0.
   333  3.32  0.  0.
   334  3.33  0.  0.
   335  3.34  0.  0.
   336  3.35  0.  0.
   337  3.36  0.  0.
   338  3.37  0.  0.
   339  3.38  0.  0.
   340  3.39  0.  0.
   341  3.40  0.  0.
   342  3.41  0.  0.
   343  3.42  0.  0.
   344  3.43  0.  0.
   345  3.44  0.  0.
   346  3.45  0.  0.
   347  3.46  0.  0.
   348  3.47  0.  0.
   349  3.48  0.  0.
   350  3.49  0.  0.
   351  3.50  0.  0.
   352  3.51  0.  0.
   353  3.52  0.  0.
   354  3.53  0.  0.
   355  3.54  0.  0.
   356  3.55  0.  0.
   357  3.56  0.  0.
   358  3.57  0.  0.
   359  3.58  0.  0.
   360  3.59  0.  0.
   361  3.60  0.  0.
   362  3.61  0.  0.
   363  3.62  0.  0.
   364  3.63  0.  0.
   365  3.64  0.  0.
   366  3.65  0.  0.
   367  3.66  0.  0.
   368  3.67  0.  0.
   369  3.68  0.  0.
   370  3.69  0.  0.
   371  3.70  0.  0.
   372  3.71  0.  0.
   373  3.72  0.  0.
   374  3.73  0.  0.
   375  3.74  0.  0.
   376  3.75  0.  0.
   377  3.76  0.  0.
   378  3.77  0.  0.
   379  3.78  0.  0.
   380  3.79  0.  0.
   381  3.80  0.  0.
   382  3.81  0.  0.
   383  3.82  0.  0.
   384  3.83  0.  0.
   385  3.84  0.  0.
   386  3.85  0.  0.
   387  3.86  0.  0.
   388  3.87  0.  0.
   389  3.88  0.  0.
   390  3.89  0.  0.
   391  3.90  0.  0.
   392  3.91  0.  0.
   393  3.92  0.  0.
   394  3.93  0.  0.
   395  3.94  0.  0.
   396  3.95  0.  0.
   397  3.96  0.  0.
   398  3.97  0.  0.
   399  3.98  0.  0.
   400  3.99  0.  0.
   401  4.00  0.  0.
   402  4.01  0.  0.
   403  4.02  0.  0.
   404  4.03  0.  0.
   405  4.04  0.  0.
   406  4.05  0.  0.
   407  4.06  0.  0.
   408  4.07  0.  0.
   409  4.08  0.  0.
   410  4.09  0.  0.
   411  4.10  0.  0.
   412  4.11  0.  0.
   413  4.12  0.  0.
   414  4.13  0.  0.
   415  4.14  0.  0.
   416  4.15  0.  0.
   417  4.16  0.  0.
   418  4.17  0.  0.
   419  4.18  0.  0.
   420  4.19  0.  0.
   421  4.20  0.  0.
   422  4.21  0.  0.
   423  4.22  0.  0.
   424  4.23  0.  0.
   425  4.24  0.  0.
   426  4.25  0.  0.
   427  4.26  0.  0.
   428  4.27  0.  0.
   429  4.28  0.  0.
   430  4.29  0.  0.
   431  4.30  0.  0.
   432  4.31  0.  0.
   433  4.32  0.  0.
   434  4.33  0.  0.
   435  4.34  0.  0.
   436  4.35  0.  0.
   437  4.36  0.  0.
   438  4.37  0.  0.
   439  4.38  0.  0.
   440  4.39  0.  0.
   441  4.40  0.  0.
   442  4.41  0.  0.
   443  4.42  0.  0.
   444  4.43  0.  0.
   445  4.44  0.  0.
   446  4.45  0.  0.
   447  4.46  0.  0.
   448  4.47  0.  0.
   449  4.48  0.  0.
   450  4.49  0.  0.
   451  4.50  0.  0.
   452  4.51  0.  0.
   453  4.52  0.  0.
   454  4.53  0.  0.
   455  4.54  0.  0.
   456  4.55  0.  0.
   457  4.56  0.  0.
   458  4.57  0.  0.
   459  4.58  0.  0.
   460  4.59  0.  0.
   461  4.60  0.  0.
   462  4.61  0.  0.
   463  4.62  0.  0.
   464  4.63  0.  0.
   465  4.64  0.  0.
   466  4.65  0.  0.
   467  4.66  0.  0.
   468  4.67  0.  0.
   469  4.68  0.  0.
   470  4.69  0.  0.
   471  4.70  0.  0.
   472  4.71  0.  0.
   473  4.72  0.  0.
   474  4.73  0.  0.
   475  4.74  0.  0.
   476  4.75  0.  0.
   477  4.76  0.  0.
   478  4.77  0.  0.
   479  4.78  0.  0.
   480  4.79  0.  0.
   481  4.80  0.  0.
   482  4.81  0.  0.
   483  4.82  0.  0.
   484  4.83  0.  0.
   485  4.84  0.  0.
   486  4.85  0.  0.
   487  4.86  0.  0.
   488  4.87  0.  0.
   489  4.88  0.  0.
   490  4.89  0.  0.
   491  4.90  0.  0.
   492  4.91  0.  0.
   493  4.92  0.  0.
   494  4.93  0.  0.
   495  4.94  0.  0.
   496  4.95  0.  0.
   497  4.96  0.  0.
   498  4.97  0.  0.
   499  4.98  0.  0.
   500  4.99  0.  0.
   501  5.00  0.  0.
   502  5.01  0.  0.
   503  5.02  0.  0.
   504  5.03  0.  0.
   505  5.04  0.  0.
   506  5.05  0.  0.
   507  5.06  0.  0.
   508  5.07  0.  0.
   509  5.08  0.  0.
   510  5.09  0.  0.
   511  5.10  0.  0.
   512  5.11  0.  0.
   513  5.12  0.  0.
   514  5.13  0.  0.
   515  5.14  0.  0.
   516  5.15  0.  0.
   517  5.16  0.  0.
   518  5.17  0.  0.
   519  5.18  0.  0.
   520  5.19  0.  0.
   521  5.20  0.  0.
   522  5.21  0.  0.
   523  5.22  0.  0.
   524  5.23  0.  0.
   525  5.24  0.  0.
   526  5.25  0.  0.
   527  5.26  0.  0.
   528  5.27  0.  0.
   529  5.28  0.  0.
   530  5.29  0.  0.
   531  5.30  0.  0.
   532  5.31  0.  0.
   533  5.32  0.  0.
   534  5.33  0.  0.
   535  5.34  0.  0.
   536  5.35  0.  0.
   537  5.36  0.  0.
   538  5.37  0.  0.
   539  5.38  0.  0.
   540  5.39  0.  0.
   541  5.40  0.  0.
   542  5.41  0.  0.
   543  5.42  0.  0.
   544  5.43  0.  0.
   545  5.44  0.  0.
   546  5.45  0.  0.
   547  5.46  0.  0.
   548  5.47  0.  0.
   549  5.48  0.  0.
   550  5.49  0.  0.
   551  5.50  0.  0.
   552  5.51  0.  0.
   553  5.52  0.  0.
   554  5.53  0.  0.
   555  5.54  0.  0.
   556  5.55  0.  0.
   557  5.56  0.  0.
   558  5.57  0.  0.
   559  5.58  0.  0.
   560  5.59  0.  0.
   561  5.60  0.  0.
   562  5.61  0.  0.
   563  5.62  0.  0.
   564  5.63  0.  0.
   565  5.64  0.  0.
   566  5.65  0.  0.
   567  5.66  0.  0.
   568  5.67  0.  0.
   569  5.68  0.  0.
   570  5.69  0.  0.
   571  5.70  0.  0.
   572  5.71  0.  0.
   573  5.72  0.  0.
   574  5.73  0.  0.
   575  5.74  0.  0.
   576  5.75  0.  0.
   577  5.76  0.  0.
   578  5.77  0.  0.
   579  5.78  0.  0.
   580  5.79  0.  0.
   581  5.80  0.  0.
   582  5.81  0.  0.
   583  5.82  0.  0.
   584  5.83  0.  0.
   585  5.84  0.  0.
   586  5.85  0.  0.
   587  5.86  0.  0.
   588  5.87  0.  0.
   589  5.88  0.  0.
   590  5.89  0.  0.
   591  5.90  0.  0.
   592  5.91  0.  0.
   593  5.92  0.  0.
   594  5.93  0.  0.
   595  5.94  0.  0.
   596  5.95  0.  0.
   597  5.96  0.  0.
   598  5.97  0.  0.
   599  5.98  0.  0.
   600  5.99  0.  0.
   1                         4.6475827738814E+00 -4.8725125435965E-01
     1  0.0000000000000E+00  5.7599508496153E-11  1.2162944262872E-10
     2  1.0000000000000E-02  1.0535960981158E-03  7.0766868653973E-04
     3  2.0000000000000E-02  4.2113225194024E-03  2.8271428496943E-03
     4  3.0000000000000E-02  9.4640028643802E-03  6.3478421587848E-03
     5  4.0000000000000E-02  1.6796373836660E-02  1.1252183862259E-02
     6  5.0000000000000E-02  2.6187131193573E-02  1.7515659267250E-02
     7  6.0000000000000E-02  3.7608993870429E-02  2.5106940372429E-02
     8  7.0000000000000E-02  5.1028786072612E-02  3.3988016217381E-02
     9  8.0000000000000E-02  6.6407537072097E-02  4.4114358390136E-02
    10  9.0000000000000E-02  8.3700598388221E-02  5.5435115014439E-02
    11  1.0000000000000E-01  1.0285777797690E-01  6.7893332421481E-02
    12  1.1000000000000E-01  1.2382349099798E-01  8.1426203596408E-02
    13  1.2000000000000E-01  1.4653692667756E-01  9.5965342379495E-02
    14  1.3000000000000E-01  1.7093223073062E-01  1.1143708229505E-01
    15  1.4000000000000E-01  1.9693870275965E-01  1.2776279877879E-01
    16  1.5000000000000E-01  2.2448100799767E-01  1.4485925347679E-01
    17  1.6000000000000E-01  2.5347940271801E-01  1.6263895919673E-01
    18  1.7000000000000E-01  2.8384997259030E-01  1.8101056400489E-01
    19  1.8000000000000E-01  3.1550488322120E-01  1.9987925288178E-01
    20  1.9000000000000E-01  3.4835264207994E-01  2.1914716527392E-01
    21  2.0000000000000E-01  3.8229837097333E-01  2.3871382681118E-01
    22  2.1000000000000E-01  4.1724408820177E-01  2.5847659339760E-01
    23  2.2000000000000E-01  4.5308899949815E-01  2.7833110582914E-01
    24  2.3000000000000E-01  4.8972979682436E-01  2.9817175304463E-01
    25  2.4000000000000E-01  5.2706096407644E-01  3.1789214207701E-01
    26  2.5000000000000E-01  5.6497508872865E-01  3.3738557273977E-01
    27  2.6000000000000E-01  6.0336317842940E-01  3.5654551506010E-01
    28  2.7000000000000E-01  6.4211498154778E-01  3.7526608745429E-01
    29  2.8000000000000E-01  6.8111931065886E-01  3.9344253363336E-01
    30  2.9000000000000E-01  7.2026436794828E-01  4.1097169622758E-01
    31  3.0000000000000E-01  7.5943807151302E-01  4.2775248512762E-01
    32  3.1000000000000E-01  7.9852838153450E-01  4.4368633855705E-01
    33  3.2000000000000E-01  8.3742362530303E-01  4.5867767491670E-01
    34  3.3000000000000E-01  8.7601282007923E-01  4.7263433347491E-01
    35  3.4000000000000E-01  9.1418599278734E-01  4.8546800201955E-01
    36  3.5000000000000E-01  9.5183449554875E-01  4.9709462963783E-01
    37  3.6000000000000E-01  9.8885131608012E-01  5.0743482284684E-01
    38  3.7000000000000E-01  1.0251313820005E+00  5.1641422336402E-01
    39  3.8000000000000E-01  1.0605718581138E+00  5.2396386587842E-01
    40  3.9000000000000E-01  1.0950724357603E+00  5.3002051426415E-01
    41  4.0000000000000E-01  1.1285356133579E+00  5.3452697476361E-01
    42  4.1000000000000E-01  1.1608669672871E+00  5.3743238476124E-01
    43  4.2000000000000E-01  1.1919754123069E+00  5.3869247586802E-01
    44  4.3000000000000E-01  1.2217734507285E+00  5.3826981014136E-01
    45  4.4000000000000E-01  1.2501774096089E+00  5.3613398837595E-01
    46  4.5000000000000E-01  1.2771076652734E+00  5.3226182951561E-01
    47  4.6000000000000E-01  1.3024888545175E+00  5.2663752035609E-01
    48  4.7000000000000E-01  1.3262500718857E+00  5.1925273483202E-01
    49  4.8000000000000E-01  1.3483250524718E+00  5.1010672230768E-01
    50  4.9000000000000E-01  1.3686523397388E+00  4.9920636442123E-01
    51  5.0000000000000E-01  1.3871754379028E+00  4.8656620016334E-01
    52  5.1000000000000E-01  1.4038429484825E+00  4.7220841900489E-01
    53  5.2000000000000E-01  1.4186086906677E+00  4.5616282202275E-01
    54  5.3000000000000E-01  1.4314318052150E+00  4.3846675110786E-01
    55  5.4000000000000E-01  1.4422768416358E+00  4.1916498647434E-01
    56  5.5000000000000E-01  1.4511138284971E+00  3.9830961282310E-01
    57  5.6000000000000E-01  1.4579183267118E+00  3.7595985464553E-01
    58  5.7000000000000E-01  1.4626714657528E+00  3.5218188128464E-01
    59  5.8000000000000E-01  1.4653599627809E+00  3.2704858249843E-01
    60  5.9000000000000E-01  1.4659761247342E+00  3.0063931539646E-01
    61  6.0000000000000E-01  1.4645178334802E+00  2.7303962374165E-01
    62  6.1000000000000E-01  1.4609885141910E+00  2.4434093072666E-01
    63  6.2000000000000E-01  1.4553970871507E+00  2.1464020644731E-01
    64  6.3000000000000E-01  1.4477579032644E+00  1.8403961140204E-01
    65  6.4000000000000E-01  1.4380906635825E+00  1.5264611744854E-01
    66  6.5000000000000E-01  1.4264203232126E+00  1.2057110774350E-01
    67  6.6000000000000E-01  1.4127769800333E+00  8.7929957280160E-02
    68  6.7000000000000E-01  1.3971957486764E+00  5.4841595719872E-02
    69  6.8000000000000E-01  1.3797166202870E+00  2.1428054287605E-02
    70  6.9000000000000E-01  1.3603843086146E+00 -1.2186001432022E-02
    71  7.0000000000000E-01  1.3392480830304E+00 -4.5873750903811E-02
    72  7.1000000000000E-01  1.3163615891027E+00 -7.9506708311622E-02
    73  7.2000000000000E-01  1.2917826574009E+00 -1.1295522050289E-01
    74  7.3000000000000E-01  1.2655731012308E+00 -1.4608897118940E-01
    75  7.4000000000000E-01  1.2377985040342E+00 -1.7877748936216E-01
    76  7.5000000000000E-01  1.2085279972166E+00 -2.1089065986263E-01
    77  7.6000000000000E-01  1.1778340291890E+00 -2.4229923404683E-01
    78  7.7000000000000E-01  1.1457921264341E+00 -2.7287533848107E-01
    79  7.8000000000000E-01  1.1124806474274E+00 -3.0249297961982E-01
    80  7.9000000000000E-01  1.0779805302561E+00 -3.3102854243579E-01
    81  8.0000000000000E-01  1.0423750347985E+00 -3.5836128100130E-01
    82  8.1000000000000E-01  1.0057494803298E+00 -3.8437379905623E-01
    83  8.2000000000000E-01  9.6819097943383E-01 -4.0895251864320E-01
    84  8.3000000000000E-01  9.2978816909939E-01 -4.3198813494255E-01
    85  8.4000000000000E-01  8.9063093988456E-01 -4.5337605549998E-01
    86  8.5000000000000E-01  8.5081016402832E-01 -4.7301682210644E-01
    87  8.6000000000000E-01  8.1041742338512E-01 -4.9081651366331E-01
    88  8.7000000000000E-01  7.6954473804980E-01 -5.0668712844587E-01
    89  8.8000000000000E-01  7.2828429652982E-01 -5.2054694426287E-01
    90  8.9000000000000E-01  6.8672818830849E-01 -5.3232085510154E-01
    91  9.0000000000000E-01  6.4496813962663E-01 -5.4194068294169E-01
    92  9.1000000000000E-01  6.0309525329169E-01 -5.4934546352282E-01
    93  9.2000000000000E-01  5.6119975330215E-01 -5.5448170495090E-01
    94  9.3000000000000E-01  5.1937073505134E-01 -5.5730361813765E-01
    95  9.4000000000000E-01  4.7769592184949E-01 -5.5777331817406E-01
    96  9.5000000000000E-01  4.3626142847442E-01 -5.5586099585017E-01
    97  9.6000000000000E-01  3.9515153243180E-01 -5.5154505864523E-01
    98  9.7000000000000E-01  3.5444845357391E-01 -5.4481224062497E-01
    99  9.8000000000000E-01  3.1423214269247E-01 -5.3565768079556E-01
   100  9.9000000000000E-01  2.7458007966599E-01 -5.2408496957644E-01
   101  1.0000000000000E+00  2.3556708170571E-01 -5.1010616316549E-01
   102  1.0100000000000E+00  1.9726512220620E-01 -4.9374176568067E-01
   103  1.0200000000000E+00  1.5974316066830E-01 -4.7502067906974E-01
   104  1.0300000000000E+00  1.2306698412164E-01 -4.5398012088615E-01
   105  1.0400000000000E+00  8.7299060433832E-02 -4.3066551013140E-01
   106  1.0500000000000E+00  5.2498403851902E-02 -4.0513032146407E-01
   107  1.0600000000000E+00  1.8720453079797E-02 -3.7743590817115E-01
   108  1.0700000000000E+00 -1.3983037846354E-02 -3.4765129438934E-01
   109  1.0800000000000E+00 -4.5564095665812E-02 -3.1585293715054E-01
   110  1.0900000000000E+00 -7.5978610806611E-02 -2.8212445890894E-01
   111  1.1000000000000E+00 -1.0518640696999E-01 -2.4655635128367E-01
   112  1.1100000000000E+00 -1.3315129729307E-01 -2.0924565082384E-01
   113  1.1200000000000E+00 -1.5984112703872E-01 -1.7029558766889E-01
   114  1.1300000000000E+00 -1.8522780280241E-01 -1.2981520803881E-01
   115  1.1400000000000E+00 -2.0928730826666E-01 -8.7918971543618E-02