H     ONCVPSP-4.0.1  r_core=   1.03328   1.00283
      1.0000      1.0000      210704    zatom,zion,pspd
     8      11   1     4   300     0    pspcod,pspxc,lmax,lloc,mmax,r2well
  2.99000000  0.00000000  0.00000000    rchrg fchrg qchrg
     2     1     0     0     0    nproj
     1     1           extension_switch
   0                        -1.2794660285293E+00 -4.2703969939229E-01
     1  0.0000000000000E+00  1.4137695747707E-06 -1.1837475000220E-06
     2  1.0000000000000E-02 -2.9424555523124E-02  8.0598657798010E-02
     3  2.0000000000000E-02 -5.4626650236854E-02  1.5770360627565E-01
     4  3.0000000000000E-02 -7.1578346811059E-02  2.2798601993154E-01
     5  4.0000000000000E-02 -7.6631999266123E-02  2.8843941774048E-01
     6  5.0000000000000E-02 -6.6688907452271E-02  3.3652260977541E-01
     7  6.0000000000000E-02 -3.9343277745020E-02  3.7028168855372E-01
     8  7.0000000000000E-02  7.0049691430346E-03  3.8844556163390E-01
     9  8.0000000000000E-02  7.3073588564255E-02  3.9049070573593E-01
    10  9.0000000000000E-02  1.5866100443578E-01  3.7667219920065E-01
    11  1.0000000000000E-01  2.6265051376966E-01  3.4801959713092E-01
    12  1.1000000000000E-01  3.8305544878076E-01  3.0629778443466E-01
    13  1.2000000000000E-01  5.1710319247474E-01  2.5393450581094E-01
    14  1.3000000000000E-01  6.6135419305823E-01  1.9391775849252E-01
    15  1.4000000000000E-01  8.1185055067292E-01  1.2966757685211E-01
    16  1.5000000000000E-01  9.6428742809370E-01  6.4887877922060E-02
    17  1.6000000000000E-01  1.1141995247726E+00  3.4049228333937E-03
    18  1.7000000000000E-01  1.2571541962293E+00 -5.1000457983847E-02
    19  1.8000000000000E-01  1.3889425271596E+00 -9.4759454179986E-02
    20  1.9000000000000E-01  1.5057597879631E+00 -1.2467331452219E-01
    21  2.0000000000000E-01  1.6043672137552E+00 -1.3805585464768E-01
    22  2.1000000000000E-01  1.6822279176664E+00 -1.3285414586667E-01
    23  2.2000000000000E-01  1.7376109451437E+00 -1.0774206817232E-01
    24  2.3000000000000E-01  1.7696589373049E+00 -6.2182614940582E-02
    25  2.4000000000000E-01  1.7784165314606E+00  3.5437797002771E-03
    26  2.5000000000000E-01  1.7648184092740E+00  8.8346119304085E-02
    27  2.6000000000000E-01  1.7306377260493E+00  1.9036460731682E-01
    28  2.7000000000000E-01  1.6783974352816E+00  3.0704543959587E-01
    29  2.8000000000000E-01  1.6112486802693E+00  4.3524532925072E-01
    30  2.9000000000000E-01  1.5328218847819E+00  5.7136117184606E-01
    31  3.0000000000000E-01  1.4470573725140E+00  7.1147917218442E-01
    32  3.1000000000000E-01  1.3580232277700E+00  8.5153692127347E-01
    33  3.2000000000000E-01  1.2697286397070E+00  9.8749136916995E-01
    34  3.3000000000000E-01  1.1859411280631E+00  1.1154854085799E+00
    35  3.4000000000000E-01  1.1100158253997E+00  1.2320058737938E+00
    36  3.5000000000000E-01  1.0447444025243E+00  1.3340261638956E+00
    37  3.6000000000000E-01  9.9223029948312E-01  1.4191273984736E+00
    38  3.7000000000000E-01  9.5379570885933E-01  1.4855929756659E+00
    39  3.8000000000000E-01  9.2992430840634E-01  1.5324725823552E+00
    40  3.9000000000000E-01  9.2024212364815E-01  1.5596130515198E+00
    41  4.0000000000000E-01  9.2353719215477E-01  1.5676549121682E+00
    42  4.1000000000000E-01  9.3781697726963E-01  1.5579949689221E+00
    43  4.2000000000000E-01  9.6040081737485E-01  1.5327167159776E+00
    44  4.3000000000000E-01  9.8804317077671E-01  1.4944917704334E+00
    45  4.4000000000000E-01  1.0170820923167E+00  1.4464567439257E+00
    46  4.5000000000000E-01  1.0436063121277E+00  1.3920710073491E+00
    47  4.6000000000000E-01  1.0636335233469E+00  1.3349615986461E+00
    48  4.7000000000000E-01  1.0732920535389E+00  1.2787620467525E+00
    49  4.8000000000000E-01  1.0689980081239E+00  1.2269521165794E+00
    50  4.9000000000000E-01  1.0476202314843E+00  1.1827054141353E+00
    51  5.0000000000000E-01  1.0066260154210E+00  1.1487514342776E+00
    52  5.1000000000000E-01  9.4420136364831E-01  1.1272580053695E+00
    53  5.2000000000000E-01  8.5934075079838E-01  1.1197392159621E+00
    54  5.3000000000000E-01  7.5190264030954E-01  1.1269928390676E+00
    55  5.4000000000000E-01  6.2262848529148E-01  1.1490700481038E+00
    56  5.5000000000000E-01  4.7312446305221E-01  1.1852788992471E+00
    57  5.6000000000000E-01  3.0580672010363E-01  1.2342216910191E+00
    58  5.7000000000000E-01  1.2381316437239E-01  1.2938621407073E+00
    59  5.8000000000000E-01 -6.9101363670901E-02  1.3615766771115E+00
    60  5.9000000000000E-01 -2.6868365161889E-01  1.4342081390494E+00
    61  6.0000000000000E-01 -4.7033037450272E-01  1.5081899991490E+00
    62  6.1000000000000E-01 -6.6925086456853E-01  1.5796940371207E+00
    63  6.2000000000000E-01 -8.6063572606982E-01  1.6447875403976E+00
    64  6.3000000000000E-01 -1.0398245629531E+00  1.6995938034456E+00
    65  6.4000000000000E-01 -1.2024662954324E+00  1.7404496642339E+00
    66  6.5000000000000E-01 -1.3446660149276E+00  1.7640540348734E+00
    67  6.6000000000000E-01 -1.4631130356482E+00  1.7676018355631E+00
    68  6.7000000000000E-01 -1.5551857062198E+00  1.7488984014919E+00
    69  6.8000000000000E-01 -1.6190296011954E+00  1.7064502711218E+00
    70  6.9000000000000E-01 -1.6536068685772E+00  1.6395292410806E+00
    71  7.0000000000000E-01 -1.6587157131240E+00  1.5482076461280E+00
    72  7.1000000000000E-01 -1.6349801928564E+00  1.4333639463839E+00
    73  7.2000000000000E-01 -1.5838116478389E+00  1.2966588332015E+00
    74  7.3000000000000E-01 -1.5073441201634E+00  1.1404831553717E+00
    75  7.4000000000000E-01 -1.4083470241176E+00  9.6787997956334E-01
    76  7.5000000000000E-01 -1.2901190530141E+00  7.8244399336450E-01
    77  7.6000000000000E-01 -1.1563678442899E+00  5.8820220991774E-01
    78  7.7000000000000E-01 -1.0110802550756E+00  3.8948051648463E-01
    79  7.8000000000000E-01 -8.5838822208214E-01  1.9076100632758E-01
    80  7.9000000000000E-01 -7.0243510137748E-01 -3.4647593690973E-03
    81  8.0000000000000E-01 -5.4724712069704E-01 -1.8884139535656E-01
    82  8.1000000000000E-01 -3.9661414932254E-01 -3.6128924705260E-01
    83  8.2000000000000E-01 -2.5398342888084E-01 -5.1713319875941E-01
    84  8.3000000000000E-01 -1.2236924499458E-01 -6.5321656426051E-01
    85  8.4000000000000E-01 -4.2807849109093E-03 -7.6699650592829E-01
    86  8.5000000000000E-01  9.8330339356310E-02 -8.5661813986257E-01
    87  8.6000000000000E-01  1.8410219070504E-01 -9.2096526896495E-01
    88  8.7000000000000E-01  2.5227425591200E-01 -9.5968651077942E-01
    89  8.8000000000000E-01  3.0267954912146E-01 -9.7319641852324E-01
    90  8.9000000000000E-01  3.3571837948407E-01 -9.6265201385568E-01
    91  9.0000000000000E-01  3.5231559798916E-01 -9.2990592024202E-01
    92  9.1000000000000E-01  3.5386354396299E-01 -8.7743799727272E-01
    93  9.2000000000000E-01  3.4215320422112E-01 -8.0826799771874E-01
    94  9.3000000000000E-01  3.1929628570355E-01 -7.2585229600510E-01
    95  9.4000000000000E-01  2.8764098684602E-01 -6.3396815190372E-01
    96  9.5000000000000E-01  2.4968424421325E-01 -5.3658927098755E-01
    97  9.6000000000000E-01  2.0798314552785E-01 -4.3775660615955E-01
    98  9.7000000000000E-01  1.6506797653838E-01 -3.4144835117942E-01
    99  9.8000000000000E-01  1.2335979168464E-01 -2.5145350137933E-01
   100  9.9000000000000E-01  8.5042019959150E-02 -1.7121275245664E-01
   101  1.0000000000000E+00  5.2056548487297E-02 -1.0375827704007E-01
   102  1.0100000000000E+00  2.6144523880755E-02 -5.1694724147416E-02
   103  1.0200000000000E+00  8.6618502289736E-03 -1.7019730465379E-02
   104  1.0300000000000E+00  6.1578317908471E-04 -1.2042255045406E-03
   105  1.0400000000000E+00  9.4301369120566E-06 -1.8421606365478E-05
   106  1.0500000000000E+00 -3.9817571334151E-06  7.7928715019064E-06
   107  1.06  0.  0.
   108  1.07  0.  0.
   109  1.08  0.  0.
   110  1.09  0.  0.
   111  1.10  0.  0.
   112  1.11  0.  0.
   113  1.12  0.  0.
   114  1.13  0.  0.
   115  1.14  0.  0.
   116  1.15  0.  0.
   117  1.16  0.  0.
   118  1.17  0.  0.
   119  1.18  0.  0.
   120  1.19  0.  0.
   121  1.20  0.  0.
   122  1.21  0.  0.
   123  1.22  0.  0.
   124  1.23  0.  0.
   125  1.24  0.  0.
   126  1.25  0.  0.
   127  1.26  0.  0.
   128  1.27  0.  0.
   129  1.28  0.  0.
   130  1.29  0.  0.
   131  1.30  0.  0.
   132  1.31  0.  0.
   133  1.32  0.  0.
   134  1.33  0.  0.
   135  1.34  0.  0.
   136  1.35  0.  0.
   137  1.36  0.  0.
   138  1.37  0.  0.
   139  1.38  0.  0.
   140  1.39  0.  0.
   141  1.40  0.  0.
   142  1.41  0.  0.
   143  1.42  0.  0.
   144  1.43  0.  0.
   145  1.44  0.  0.
   146  1.45  0.  0.
   147  1.46  0.  0.
   148  1.47  0.  0.
   149  1.48  0.  0.
   150  1.49  0.  0.
   151  1.50  0.  0.
   152  1.51  0.  0.
   153  1.52  0.  0.
   154  1.53  0.  0.
   155  1.54  0.  0.
   156  1.55  0.  0.
   157  1.56  0.  0.
   158  1.57  0.  0.
   159  1.58  0.  0.
   160  1.59  0.  0.
   161  1.60  0.  0.
   162  1.61  0.  0.
   163  1.62  0.  0.
   164  1.63  0.  0.
   165  1.64  0.  0.
   166  1.65  0.  0.
   167  1.66  0.  0.
   168  1.67  0.  0.
   169  1.68  0.  0.
   170  1.69  0.  0.
   171  1.70  0.  0.
   172  1.71  0.  0.
   173  1.72  0.  0.
   174  1.73  0.  0.
   175  1.74  0.  0.
   176  1.75  0.  0.
   177  1.76  0.  0.
   178  1.77  0.  0.
   179  1.78  0.  0.
   180  1.79  0.  0.
   181  1.80  0.  0.
   182  1.81  0.  0.
   183  1.82  0.  0.
   184  1.83  0.  0.
   185  1.84  0.  0.
   186  1.85  0.  0.
   187  1.86  0.  0.
   188  1.87  0.  0.
   189  1.88  0.  0.
   190  1.89  0.  0.
   191  1.90  0.  0.
   192  1.91  0.  0.
   193  1.92  0.  0.
   194  1.93  0.  0.
   195  1.94  0.  0.
   196  1.95  0.  0.
   197  1.96  0.  0.
   198  1.97  0.  0.
   199  1.98  0.  0.
   200  1.99  0.  0.
   201  2.00  0.  0.
   202  2.01  0.  0.
   203  2.02  0.  0.
   204  2.03  0.  0.
   205  2.04  0.  0.
   206  2.05  0.  0.
   207  2.06  0.  0.
   208  2.07  0.  0.
   209  2.08  0.  0.
   210  2.09  0.  0.
   211  2.10  0.  0.
   212  2.11  0.  0.
   213  2.12  0.  0.
   214  2.13  0.  0.
   215  2.14  0.  0.
   216  2.15  0.  0.
   217  2.16  0.  0.
   218  2.17  0.  0.
   219  2.18  0.  0.
   220  2.19  0.  0.
   221  2.20  0.  0.
   222  2.21  0.  0.
   223  2.22  0.  0.
   224  2.23  0.  0.
   225  2.24  0.  0.
   226  2.25  0.  0.
   227  2.26  0.  0.
   228  2.27  0.  0.
   229  2.28  0.  0.
   230  2.29  0.  0.
   231  2.30  0.  0.
   232  2.31  0.  0.
   233  2.32  0.  0.
   234  2.33  0.  0.
   235  2.34  0.  0.
   236  2.35  0.  0.
   237  2.36  0.  0.
   238  2.37  0.  0.
   239  2.38  0.  0.
   240  2.39  0.  0.
   241  2.40  0.  0.
   242  2.41  0.  0.
   243  2.42  0.  0.
   244  2.43  0.  0.
   245  2.44  0.  0.
   246  2.45  0.  0.
   247  2.46  0.  0.
   248  2.47  0.  0.
   249  2.48  0.  0.
   250  2.49  0.  0.
   251  2.50  0.  0.
   252  2.51  0.  0.
   253  2.52  0.  0.
   254  2.53  0.  0.
   255  2.54  0.  0.
   256  2.55  0.  0.
   257  2.56  0.  0.
   258  2.57  0.  0.
   259  2.58  0.  0.
   260  2.59  0.  0.
   261  2.60  0.  0.
   262  2.61  0.  0.
   263  2.62  0.  0.
   264  2.63  0.  0.
   265  2.64  0.  0.
   266  2.65  0.  0.
   267  2.66  0.  0.
   268  2.67  0.  0.
   269  2.68  0.  0.
   270  2.69  0.  0.
   271  2.70  0.  0.
   272  2.71  0.  0.
   273  2.72  0.  0.
   274  2.73  0.  0.
   275  2.74  0.  0.
   276  2.75  0.  0.
   277  2.76  0.  0.
   278  2.77  0.  0.
   279  2.78  0.  0.
   280  2.79  0.  0.
   281  2.80  0.  0.
   282  2.81  0.  0.
   283  2.82  0.  0.
   284  2.83  0.  0.
   285  2.84  0.  0.
   286  2.85  0.  0.
   287  2.86  0.  0.
   288  2.87  0.  0.
   289  2.88  0.  0.
   290  2.89  0.  0.
   291  2.90  0.  0.
   292  2.91  0.  0.
   293  2.92  0.  0.
   294  2.93  0.  0.
   295  2.94  0.  0.
   296  2.95  0.  0.
   297  2.96  0.  0.
   298  2.97  0.  0.
   299  2.98  0.  0.
   300  2.99  0.  0.
   1                        -1.2532533781254E-01
     1  0.0000000000000E+00 -1.4901930245337E-08
     2  1.0000000000000E-02 -3.5014620431448E-03
     3  2.0000000000000E-02 -1.3971198455320E-02
     4  3.0000000000000E-02 -3.1305762630645E-02
     5  4.0000000000000E-02 -5.5334410335509E-02
     6  5.0000000000000E-02 -8.5821570671010E-02
     7  6.0000000000000E-02 -1.2247024743569E-01
     8  7.0000000000000E-02 -1.6492629388455E-01
     9  8.0000000000000E-02 -2.1278348897825E-01
    10  9.0000000000000E-02 -2.6558932934201E-01
    11  1.0000000000000E-01 -3.2285143850631E-01
    12  1.1000000000000E-01 -3.8404448378658E-01
    13  1.2000000000000E-01 -4.4861748154761E-01
    14  1.3000000000000E-01 -5.1600136376981E-01
    15  1.4000000000000E-01 -5.8561667292932E-01
    16  1.5000000000000E-01 -6.5688124835425E-01
    17  1.6000000000000E-01 -7.2921776553656E-01
    18  1.7000000000000E-01 -8.0206099044506E-01
    19  1.8000000000000E-01 -8.7486461376514E-01
    20  1.9000000000000E-01 -9.4710753521624E-01
    21  2.0000000000000E-01 -1.0182994756858E+00
    22  2.1000000000000E-01 -1.0879858048399E+00
    23  2.2000000000000E-01 -1.1557514840928E+00
    24  2.3000000000000E-01 -1.2212240392544E+00
    25  2.4000000000000E-01 -1.2840754937314E+00
    26  2.5000000000000E-01 -1.3440232117041E+00
    27  2.6000000000000E-01 -1.4008296210777E+00
    28  2.7000000000000E-01 -1.4543008080342E+00
    29  2.8000000000000E-01 -1.5042839984877E+00
    30  2.9000000000000E-01 -1.5506639664318E+00
    31  3.0000000000000E-01 -1.5933584348351E+00
    32  3.1000000000000E-01 -1.6323125611087E+00
    33  3.2000000000000E-01 -1.6674926259691E+00
    34  3.3000000000000E-01 -1.6988790714672E+00
    35  3.4000000000000E-01 -1.7264590607438E+00
    36  3.5000000000000E-01 -1.7502187584193E+00
    37  3.6000000000000E-01 -1.7701355561307E+00
    38  3.7000000000000E-01 -1.7861704922945E+00
    39  3.8000000000000E-01 -1.7982611384359E+00
    40  3.9000000000000E-01 -1.8063152460974E+00
    41  4.0000000000000E-01 -1.8102054681875E+00
    42  4.1000000000000E-01 -1.8097654864194E+00
    43  4.2000000000000E-01 -1.8047878920117E+00
    44  4.3000000000000E-01 -1.7950241799190E+00
    45  4.4000000000000E-01 -1.7801872273618E+00
    46  4.5000000000000E-01 -1.7599566352485E+00
    47  4.6000000000000E-01 -1.7339873161242E+00
    48  4.7000000000000E-01 -1.7019217145293E+00
    49  4.8000000000000E-01 -1.6634060450766E+00
    50  4.9000000000000E-01 -1.6181109302232E+00
    51  5.0000000000000E-01 -1.5657568136649E+00
    52  5.1000000000000E-01 -1.5061445166544E+00
    53  5.2000000000000E-01 -1.4391912934615E+00
    54  5.3000000000000E-01 -1.3649727288409E+00
    55  5.4000000000000E-01 -1.2837708049536E+00
    56  5.5000000000000E-01 -1.1961284479323E+00
    57  5.6000000000000E-01 -1.1029108272084E+00
    58  5.7000000000000E-01 -1.0053606632855E+00
    59  5.8000000000000E-01 -9.0494671645617E-01
    60  5.9000000000000E-01 -8.0309558062835E-01
    61  6.0000000000000E-01 -7.0114460333758E-01
    62  6.1000000000000E-01 -6.0033243738258E-01
    63  6.2000000000000E-01 -5.0179126423910E-01
    64  6.3000000000000E-01 -4.0654068926681E-01
    65  6.4000000000000E-01 -3.1548328067420E-01
    66  6.5000000000000E-01 -2.2940170845655E-01
    67  6.6000000000000E-01 -1.4895742489276E-01
    68  6.7000000000000E-01 -7.4690810756233E-02
    69  6.8000000000000E-01 -7.0227011319004E-03
    70  6.9000000000000E-01  5.3742806527861E-02
    71  7.0000000000000E-01  1.0741436719403E-01
    72  7.1000000000000E-01  1.5390833795242E-01
    73  7.2000000000000E-01  1.9324277998500E-01
    74  7.3000000000000E-01  2.2553063408311E-01
    75  7.4000000000000E-01  2.5097218678577E-01
    76  7.5000000000000E-01  2.6984695002501E-01
    77  7.6000000000000E-01  2.8250507385365E-01
    78  7.7000000000000E-01  2.8935840211613E-01
    79  7.8000000000000E-01  2.9087128318967E-01
    80  7.9000000000000E-01  2.8755124146636E-01
    81  8.0000000000000E-01  2.7993960104256E-01
    82  8.1000000000000E-01  2.6860215356370E-01
    83  8.2000000000000E-01  2.5411995337724E-01
    84  8.3000000000000E-01  2.3708030532960E-01
    85  8.4000000000000E-01  2.1806801630489E-01
    86  8.5000000000000E-01  1.9765696077292E-01
    87  8.6000000000000E-01  1.7640200572243E-01
    88  8.7000000000000E-01  1.5483133865152E-01
    89  8.8000000000000E-01  1.3343922036976E-01
    90  8.9000000000000E-01  1.1267919506486E-01
    91  9.0000000000000E-01  9.2957765126413E-02
    92  9.1000000000000E-01  7.4628549603724E-02
    93  9.2000000000000E-01  5.7986926042205E-02
    94  9.3000000000000E-01  4.3265160982654E-02
    95  9.4000000000000E-01  3.0628127473255E-02
    96  9.5000000000000E-01  2.0168819450369E-02
    97  9.6000000000000E-01  1.2030459202553E-02
    98  9.7000000000000E-01  6.3321460846524E-03
    99  9.8000000000000E-01  2.6993347662408E-03
   100  9.9000000000000E-01  7.3552298422781E-04
   101  1.0000000000000E+00  3.5864048509449E-05
   102  1.0100000000000E+00  1.3179268015791E-06
   103  1.0200000000000E+00 -1.7201572280574E-07
   104  1.03  0.
   105  1.04  0.
   106  1.05  0.
   107  1.06  0.
   108  1.07  0.
   109  1.08  0.
   110  1.09  0.
   111  1.10  0.
   112  1.11  0.
   113  1.12  0.
   114  1.13  0.
   115  1.14  0.
   116  1.15  0.
   117  1.16  0.
   118  1.17  0.
   119  1.18  0.
   120  1.19  0.
   121  1.20  0.
   122  1.21  0.
   123  1.22  0.
   124  1.23  0.
   125  1.24  0.
   126  1.25  0.
   127  1.26  0.
   128  1.27  0.
   129  1.28  0.
   130  1.29  0.
   131  1.30  0.
   132  1.31  0.
   133  1.32  0.
   134  1.33  0.
   135  1.34  0.
   136  1.35  0.
   137  1.36  0.
   138  1.37  0.
   139  1.38  0.
   140  1.39  0.
   141  1.40  0.
   142  1.41  0.
   143  1.42  0.
   144  1.43  0.
   145  1.44  0.
   146  1.45  0.
   147  1.46  0.
   148  1.47  0.
   149  1.48  0.
   150  1.49  0.
   151  1.50  0.
   152  1.51  0.
   153  1.52  0.
   154  1.53  0.
   155  1.54  0.
   156  1.55  0.
   157  1.56  0.
   158  1.57  0.
   159  1.58  0.
   160  1.59  0.
   161  1.60  0.
   162  1.61  0.
   163  1.62  0.
   164  1.63  0.
   165  1.64  0.
   166  1.65  0.
   167  1.66  0.
   168  1.67  0.
   169  1.68  0.
   170  1.69  0.
   171  1.70  0.
   172  1.71  0.
   173  1.72  0.
   174  1.73  0.
   175  1.74  0.
   176  1.75  0.
   177  1.76  0.
   178  1.77  0.
   179  1.78  0.
   180  1.79  0.
   181  1.80  0.
   182  1.81  0.
   183  1.82  0.
   184  1.83  0.
   185  1.84  0.
   186  1.85  0.
   187  1.86  0.
   188  1.87  0.
   189  1.88  0.
   190  1.89  0.
   191  1.90  0.
   192  1.91  0.
   193  1.92  0.
   194  1.93  0.
   195  1.94  0.
   196  1.95  0.
   197  1.96  0.
   198  1.97  0.
   199  1.98  0.
   200  1.99  0.
   201  2.00  0.
   202  2.01  0.
   203  2.02  0.
   204  2.03  0.
   205  2.04  0.
   206  2.05  0.
   207  2.06  0.
   208  2.07  0.
   209  2.08  0.
   210  2.09  0.
   211  2.10  0.
   212  2.11  0.
   213  2.12  0.
   214  2.13  0.
   215  2.14  0.
   216  2.15  0.
   217  2.16  0.
   218  2.17  0.
   219  2.18  0.
   220  2.19  0.
   221  2.20  0.
   222  2.21  0.
   223  2.22  0.
   224  2.23  0.
   225  2.24  0.
   226  2.25  0.
   227  2.26  0.
   228  2.27  0.
   229  2.28  0.
   230  2.29  0.
   231  2.30  0.
   232  2.31  0.
   233  2.32  0.
   234  2.33  0.
   235  2.34  0.
   236  2.35  0.
   237  2.36  0.
   238  2.37  0.
   239  2.38  0.
   240  2.39  0.
   241  2.40  0.
   242  2.41  0.
   243  2.42  0.
   244  2.43  0.
   245  2.44  0.
   246  2.45  0.
   247  2.46  0.
   248  2.47  0.
   249  2.48  0.
   250  2.49  0.
   251  2.50  0.
   252  2.51  0.
   253  2.52  0.
   254  2.53  0.
   255  2.54  0.
   256  2.55  0.
   257  2.56  0.
   258  2.57  0.
   259  2.58  0.
   260  2.59  0.
   261  2.60  0.
   262  2.61  0.
   263  2.62  0.
   264  2.63  0.
   265  2.64  0.
   266  2.65  0.
   267  2.66  0.
   268  2.67  0.
   269  2.68  0.
   270  2.69  0.
   271  2.70  0.
   272  2.71  0.
   273  2.72  0.
   274  2.73  0.
   275  2.74  0.
   276  2.75  0.
   277  2.76  0.
   278  2.77  0.
   279  2.78  0.
   280  2.79  0.
   281  2.80  0.
   282  2.81  0.
   283  2.82  0.
   284  2.83  0.
   285  2.84  0.
   286  2.85  0.
   287  2.86  0.
   288  2.87  0.
   289  2.88  0.
   290  2.89  0.
   291  2.90  0.
   292  2.91  0.
   293  2.92  0.
   294  2.93  0.
   295  2.94  0.
   296  2.95  0.
   297  2.96  0.
   298  2.97  0.
   299  2.98  0.
   300  2.99  0.
   4
     1  0.0000000000000E+00 -3.9826756016019E+00
     2  1.0000000000000E-02 -3.9812001739409E+00
     3  2.0000000000000E-02 -3.9767812182312E+00
     4  3.0000000000000E-02 -3.9694409963770E+00
     5  4.0000000000000E-02 -3.9592156987562E+00
     6  5.0000000000000E-02 -3.9461543374446E+00
     7  6.0000000000000E-02 -3.9303172628685E+00
     8  7.0000000000000E-02 -3.9117744769563E+00
     9  8.0000000000000E-02 -3.8906038707615E+00
    10  9.0000000000000E-02 -3.8668895069310E+00
    11  1.0000000000000E-01 -3.8407200527406E+00
    12  1.1000000000000E-01 -3.8121874417635E+00
    13  1.2000000000000E-01 -3.7813858150487E+00
    14  1.3000000000000E-01 -3.7484107617340E+00
    15  1.4000000000000E-01 -3.7133588535526E+00
    16  1.5000000000000E-01 -3.6763274455410E+00
    17  1.6000000000000E-01 -3.6374146998259E+00
    18  1.7000000000000E-01 -3.5967197800724E+00
    19  1.8000000000000E-01 -3.5543431595917E+00
    20  1.9000000000000E-01 -3.5103869875546E+00
    21  2.0000000000000E-01 -3.4649554614383E+00
    22  2.1000000000000E-01 -3.4181551605083E+00
    23  2.2000000000000E-01 -3.3700953023676E+00
    24  2.3000000000000E-01 -3.3208878949704E+00
    25  2.4000000000000E-01 -3.2706477629264E+00
    26  2.5000000000000E-01 -3.2194924374519E+00
    27  2.6000000000000E-01 -3.1675419065449E+00
    28  2.7000000000000E-01 -3.1149182296141E+00
    29  2.8000000000000E-01 -3.0617450277014E+00
    30  2.9000000000000E-01 -3.0081468658529E+00
    31  3.0000000000000E-01 -2.9542485496001E+00
    32  3.1000000000000E-01 -2.9001743600861E+00
    33  3.2000000000000E-01 -2.8460472547669E+00
    34  3.3000000000000E-01 -2.7919880611852E+00
    35  3.4000000000000E-01 -2.7381146898560E+00
    36  3.5000000000000E-01 -2.6845413896003E+00
    37  3.6000000000000E-01 -2.6313780653865E+00
    38  3.7000000000000E-01 -2.5787296728083E+00
    39  3.8000000000000E-01 -2.5266956987144E+00
    40  3.9000000000000E-01 -2.4753697310513E+00
    41  4.0000000000000E-01 -2.4248391152330E+00
    42  4.1000000000000E-01 -2.3751846897120E+00
    43  4.2000000000000E-01 -2.3264805886885E+00
    44  4.3000000000000E-01 -2.2787940963374E+00
    45  4.4000000000000E-01 -2.2321855352794E+00
    46  4.5000000000000E-01 -2.1867081707610E+00
    47  4.6000000000000E-01 -2.1424081115795E+00
    48  4.7000000000000E-01 -2.0993241903833E+00
    49  4.8000000000000E-01 -2.0574878067141E+00
    50  4.9000000000000E-01 -2.0169227188143E+00
    51  5.0000000000000E-01 -1.9776447718902E+00
    52  5.1000000000000E-01 -1.9396615534782E+00
    53  5.2000000000000E-01 -1.9029719682636E+00
    54  5.3000000000000E-01 -1.8675657274719E+00
    55  5.4000000000000E-01 -1.8334227499088E+00
    56  5.5000000000000E-01 -1.8005124737257E+00
    57  5.6000000000000E-01 -1.7687930808081E+00
    58  5.7000000000000E-01 -1.7382110921148E+00
    59  5.8000000000000E-01 -1.7087080696467E+00
    60  5.9000000000000E-01 -1.6802300081740E+00
    61  6.0000000000000E-01 -1.6527280215624E+00
    62  6.1000000000000E-01 -1.6261576850651E+00
    63  6.2000000000000E-01 -1.6004783806040E+00
    64  6.3000000000000E-01 -1.5756526551908E+00
    65  6.4000000000000E-01 -1.5516456038608E+00
    66  6.5000000000000E-01 -1.5284242890438E+00
    67  6.6000000000000E-01 -1.5059572079783E+00
    68  6.7000000000000E-01 -1.4842138188410E+00
    69  6.8000000000000E-01 -1.4631641346479E+00
    70  6.9000000000000E-01 -1.4427783917878E+00
    71  7.0000000000000E-01 -1.4230267975980E+00
    72  7.1000000000000E-01 -1.4038793586907E+00
    73  7.2000000000000E-01 -1.3853057892083E+00
    74  7.3000000000000E-01 -1.3672754958829E+00
    75  7.4000000000000E-01 -1.3497576349024E+00
    76  7.5000000000000E-01 -1.3327212342486E+00
    77  7.6000000000000E-01 -1.3161353743145E+00
    78  7.7000000000000E-01 -1.2999694190703E+00
    79  7.8000000000000E-01 -1.2841932898722E+00
    80  7.9000000000000E-01 -1.2687777737286E+00
    81  8.0000000000000E-01 -1.2536948574485E+00
    82  8.1000000000000E-01 -1.2389180783954E+00
    83  8.2000000000000E-01 -1.2244228815071E+00
    84  8.3000000000000E-01 -1.2101869707931E+00
    85  8.4000000000000E-01 -1.1961906420144E+00
    86  8.5000000000000E-01 -1.1824170817538E+00
    87  8.6000000000000E-01 -1.1688526170465E+00
    88  8.7000000000000E-01 -1.1554868994672E+00
    89  8.8000000000000E-01 -1.1423130082420E+00
    90  8.9000000000000E-01 -1.1293274589580E+00
    91  9.0000000000000E-01 -1.1165301075608E+00
    92  9.1000000000000E-01 -1.1039239437591E+00
    93  9.2000000000000E-01 -1.0915147732043E+00
    94  9.3000000000000E-01 -1.0793107937744E+00
    95  9.4000000000000E-01 -1.0673220773639E+00
    96  9.5000000000000E-01 -1.0555599744560E+00
    97  9.6000000000000E-01 -1.0440364639427E+00
    98  9.7000000000000E-01 -1.0327634746865E+00
    99  9.8000000000000E-01 -1.0217522077545E+00
   100  9.9000000000000E-01 -1.0110124674009E+00
   101  1.0000000000000E+00 -1.0005520932746E+00
   102  1.0100000000000E+00 -9.9037653862341E-01
   103  1.0200000000000E+00 -9.8048835776367E-01
   104  1.0300000000000E+00 -9.7088732699253E-01
   105  1.0400000000000E+00 -9.6154650305609E-01
   106  1.0500000000000E+00 -9.5238870918258E-01
   107  1.0600000000000E+00 -9.4340382035550E-01
   108  1.0700000000000E+00 -9.3458679509928E-01
   109  1.0800000000000E+00 -9.2593316443825E-01
   110  1.0900000000000E+00 -9.1743830937300E-01
   111  1.1000000000000E+00 -9.0909790685220E-01
   112  1.1100000000000E+00 -9.0090778265677E-01
   113  1.1200000000000E+00 -8.9286391146492E-01
   114  1.1300000000000E+00 -8.8496241044591E-01
   115  1.1400000000000E+00 -8.7719953300776E-01
   116  1.1500000000000E+00 -8.6957166287512E-01
   117  1.1600000000000E+00 -8.6207530847252E-01
   118  1.1700000000000E+00 -8.5470709759298E-01
   119  1.1800000000000E+00 -8.4746377234332E-01
   120  1.1900000000000E+00 -8.4034218433828E-01
   121  1.2000000000000E+00 -8.3333929014040E-01
   122  1.2100000000000E+00 -8.2645214691840E-01
   123  1.2200000000000E+00 -8.1967790833125E-01
   124  1.2300000000000E+00 -8.1301382060004E-01
   125  1.2400000000000E+00 -8.0645721877591E-01
   126  1.2500000000000E+00 -8.0000552319205E-01
   127  1.2600000000000E+00 -7.9365623607201E-01
   128  1.2700000000000E+00 -7.8740693831231E-01
   129  1.2800000000000E+00 -7.8125528640449E-01
   130  1.2900000000000E+00 -7.7519900950842E-01
   131  1.3000000000000E+00 -7.6923590665509E-01
   132  1.3100000000000E+00 -7.6336384408105E-01
   133  1.3200000000000E+00 -7.5758075268227E-01
   134  1.3300000000000E+00 -7.5188462558307E-01
   135  1.3400000000000E+00 -7.4627351581513E-01
   136  1.3500000000000E+00 -7.4074553409723E-01
   137  1.3600000000000E+00 -7.3529884671626E-01
   138  1.3700000000000E+00 -7.2993167349681E-01
   139  1.3800000000000E+00 -7.2464228586416E-01
   140  1.3900000000000E+00 -7.1942900498596E-01
   141  1.4000000000000E+00 -7.1429019999575E-01
   142  1.4100000000000E+00 -7.0922428629467E-01
   143  1.4200000000000E+00 -7.0422972391868E-01
   144  1.4300000000000E+00 -6.9930501597987E-01
   145  1.4400000000000E+00 -6.9444870717188E-01
   146  1.4500000000000E+00 -6.8965938233254E-01
   147  1.4600000000000E+00 -6.8493566507320E-01
   148  1.4700000000000E+00 -6.8027621645669E-01
   149  1.4800000000000E+00 -6.7567973373346E-01
   150  1.4900000000000E+00 -6.7114494912792E-01
   151  1.5000000000000E+00 -6.6667062867027E-01
   152  1.5100000000000E+00 -6.6225557108019E-01
   153  1.5200000000000E+00 -6.5789860668881E-01
   154  1.5300000000000E+00 -6.5359859640735E-01
   155  1.5400000000000E+00 -6.4935443073358E-01
   156  1.5500000000000E+00 -6.4516502879746E-01
   157  1.5600000000000E+00 -6.4102933744395E-01
   158  1.5700000000000E+00 -6.3694633034900E-01
   159  1.5800000000000E+00 -6.3291500717254E-01
   160  1.5900000000000E+00 -6.2893439273959E-01
   161  1.6000000000000E+00 -6.2500353625456E-01
   162  1.6100000000000E+00 -6.2112151054415E-01
   163  1.6200000000000E+00 -6.1728741132818E-01
   164  1.6300000000000E+00 -6.1350035651773E-01
   165  1.6400000000000E+00 -6.0975948553736E-01
   166  1.6500000000000E+00 -6.0606395867492E-01
   167  1.6600000000000E+00 -6.0241295645194E-01
   168  1.6700000000000E+00 -5.9880567901776E-01
   169  1.6800000000000E+00 -5.9524134556655E-01
   170  1.6900000000000E+00 -5.9171919377234E-01
   171  1.7000000000000E+00 -5.8823847924677E-01
   172  1.7100000000000E+00 -5.8479847501372E-01
   173  1.7200000000000E+00 -5.8139847100363E-01
   174  1.7300000000000E+00 -5.7803777356461E-01
   175  1.7400000000000E+00 -5.7471570499123E-01
   176  1.7500000000000E+00 -5.7143160306764E-01
   177  1.7600000000000E+00 -5.6818482062936E-01
   178  1.7700000000000E+00 -5.6497472513619E-01
   179  1.7800000000000E+00 -5.6180069826294E-01
   180  1.7900000000000E+00 -5.5866213550161E-01
   181  1.8000000000000E+00 -5.5555844577765E-01
   182  1.8100000000000E+00 -5.5248905107892E-01
   183  1.8200000000000E+00 -5.4945338609712E-01
   184  1.8300000000000E+00 -5.4645089788017E-01
   185  1.8400000000000E+00 -5.4348104549685E-01
   186  1.8500000000000E+00 -5.4054329971189E-01
   187  1.8600000000000E+00 -5.3763714267131E-01
   188  1.8700000000000E+00 -5.3476206759833E-01
   189  1.8800000000000E+00 -5.3191757849868E-01
   190  1.8900000000000E+00 -5.2910318987558E-01
   191  1.9000000000000E+00 -5.2631842645294E-01
   192  1.9100000000000E+00 -5.2356282290847E-01
   193  1.9200000000000E+00 -5.2083592361406E-01
   194  1.9300000000000E+00 -5.1813728238469E-01
   195  1.9400000000000E+00 -5.1546646223520E-01
   196  1.9500000000000E+00 -5.1282303514428E-01
   197  1.9600000000000E+00 -5.1020658182581E-01