O     ONCVPSP-4.0.1  r_core=   1.35246   1.45312   1.25127
      8.0000      6.0000      210705    zatom,zion,pspd
     8      11   2     4   600     0    pspcod,pspxc,lmax,lloc,mmax,r2well
  5.99000000  4.00000000  0.00000000    rchrg fchrg qchrg
     2     2     1     0     0    nproj
     1     1           extension_switch
   0                         5.9374731541287E+00  7.8629543923805E-01
     1  0.0000000000000E+00  2.5649171675468E-09 -5.6801441883358E-09
     2  1.0000000000000E-02  9.0737059832983E-02 -2.6492064596987E-02
     3  2.0000000000000E-02  1.8122470051177E-01 -5.2781537155147E-02
     4  3.0000000000000E-02  2.7121372737244E-01 -7.8665651582542E-02
     5  4.0000000000000E-02  3.6045541522762E-01 -1.0394133828216E-01
     6  5.0000000000000E-02  4.4870179365765E-01 -1.2840518237728E-01
     7  6.0000000000000E-02  5.3570599105990E-01 -1.5185350968268E-01
     8  7.0000000000000E-02  6.2122265392245E-01 -1.7408263608497E-01
     9  8.0000000000000E-02  7.0500845522325E-01 -1.9488931031509E-01
    10  9.0000000000000E-02  7.8682270278371E-01 -2.1407137330177E-01
    11  1.0000000000000E-01  8.6642805490937E-01 -2.3142864957767E-01
    12  1.1000000000000E-01  9.4359134682656E-01 -2.4676407778983E-01
    13  1.2000000000000E-01  1.0180845273783E+00 -2.5988507848272E-01
    14  1.3000000000000E-01  1.0896857012869E+00 -2.7060514823198E-01
    15  1.4000000000000E-01  1.1581802681427E+00 -2.7874566017376E-01
    16  1.5000000000000E-01  1.2233621452510E+00 -2.8413784226377E-01
    17  1.6000000000000E-01  1.2850350576883E+00 -2.8662489647245E-01
    18  1.7000000000000E-01  1.3430138754761E+00 -2.8606421482512E-01
    19  1.8000000000000E-01  1.3971259748030E+00 -2.8232964195786E-01
    20  1.9000000000000E-01  1.4472125977785E+00 -2.7531372888333E-01
    21  2.0000000000000E-01  1.4931301833879E+00 -2.6492991911906E-01
    22  2.1000000000000E-01  1.5347516411795E+00 -2.5111460635936E-01
    23  2.2000000000000E-01  1.5719675388155E+00 -2.3382900256748E-01
    24  2.3000000000000E-01  1.6046871749739E+00 -2.1306075677985E-01
    25  2.4000000000000E-01  1.6328395102132E+00 -1.8882526805861E-01
    26  2.5000000000000E-01  1.6563739302929E+00 -1.6116664086227E-01
    27  2.6000000000000E-01  1.6752608190495E+00 -1.3015823754601E-01
    28  2.7000000000000E-01  1.6894919212082E+00 -9.5902790623976E-02
    29  2.8000000000000E-01  1.6990804794014E+00 -5.8532046657489E-02
    30  2.9000000000000E-01  1.7040611340700E+00 -1.8205923966526E-02
    31  3.0000000000000E-01  1.7044895797580E+00  2.4888822441138E-02
    32  3.1000000000000E-01  1.7004419764476E+00  7.0540423538925E-02
    33  3.2000000000000E-01  1.6920141199061E+00  1.1851438927045E-01
    34  3.3000000000000E-01  1.6793203803972E+00  1.6855624248781E-01
    35  3.4000000000000E-01  1.6624924244122E+00  2.2039465268782E-01
    36  3.5000000000000E-01  1.6416777391654E+00  2.7374491723842E-01
    37  3.6000000000000E-01  1.6170379843511E+00  3.2831272755744E-01
    38  3.7000000000000E-01  1.5887471999308E+00  3.8379814868929E-01
    39  3.8000000000000E-01  1.5569899024224E+00  4.3989973318212E-01
    40  3.9000000000000E-01  1.5219591051590E+00  4.9631868433702E-01
    41  4.0000000000000E-01  1.4838543002192E+00  5.5276297996821E-01
    42  4.1000000000000E-01  1.4428794410994E+00  6.0895136594031E-01
    43  4.2000000000000E-01  1.3992409656793E+00  6.6461712903397E-01
    44  4.3000000000000E-01  1.3531458985646E+00  7.1951156119275E-01
    45  4.4000000000000E-01  1.3048000704931E+00  7.7340703192221E-01
    46  4.5000000000000E-01  1.2544064901541E+00  8.2609959249194E-01
    47  4.6000000000000E-01  1.2021639005482E+00  8.7741104452797E-01
    48  4.7000000000000E-01  1.1482655479557E+00  9.2719041641409E-01
    49  4.8000000000000E-01  1.0928981867695E+00  9.7531480343517E-01
    50  4.9000000000000E-01  1.0362413379851E+00  1.0216895415414E+00
    51  5.0000000000000E-01  9.7846681314121E-01  1.0662476996854E+00
    52  5.1000000000000E-01  9.1973850910553E-01  1.1089488915589E+00
    53  5.2000000000000E-01  8.6021247244112E-01  1.1497774238710E+00
    54  5.3000000000000E-01  8.0003722533718E-01  1.1887398146821E+00
    55  5.4000000000000E-01  7.3935433838732E-01  1.2258617313608E+00
    56  5.5000000000000E-01  6.7829922902591E-01  1.2611844130533E+00
    57  5.6000000000000E-01  6.1700215833977E-01  1.2947606567887E+00
    58  5.7000000000000E-01  5.5558939341697E-01  1.3266504590955E+00
    59  5.8000000000000E-01  4.9418449752143E-01  1.3569164159554E+00
    60  5.9000000000000E-01  4.3290970632127E-01  1.3856189927521E+00
    61  6.0000000000000E-01  3.7188734526879E-01  1.4128117823214E+00
    62  6.1000000000000E-01  3.1124124112367E-01  1.4385368730643E+00
    63  6.2000000000000E-01  2.5109807960315E-01  1.4628204501854E+00
    64  6.3000000000000E-01  1.9158866128432E-01  1.4856687513603E+00
    65  6.4000000000000E-01  1.3284900919410E-01  1.5070644934944E+00
    66  6.5000000000000E-01  7.5021284002391E-02  1.5269638797285E+00
    67  6.6000000000000E-01  1.8254466350130E-02  1.5452942855851E+00
    68  6.7000000000000E-01 -3.7295229462052E-02  1.5619527102838E+00
    69  6.8000000000000E-01 -9.1464240509031E-02  1.5768050640233E+00
    70  6.9000000000000E-01 -1.4408186251165E-01  1.5896863447140E+00
    71  7.0000000000000E-01 -1.9497079552656E-01  1.6004017385831E+00
    72  7.1000000000000E-01 -2.4394803631326E-01  1.6087286586670E+00
    73  7.2000000000000E-01 -2.9082611727763E-01  1.6144197138680E+00
    74  7.3000000000000E-01 -3.3541468328572E-01  1.6172065794519E+00
    75  7.4000000000000E-01 -3.7752238898004E-01  1.6168047180763E+00
    76  7.5000000000000E-01 -4.1695909071114E-01  1.6129188791572E+00
    77  7.6000000000000E-01 -4.5353829901956E-01  1.6052492840992E+00
    78  7.7000000000000E-01 -4.8707984996095E-01  1.5934983860993E+00
    79  7.8000000000000E-01 -5.1741274664829E-01  1.5773780763576E+00
    80  7.9000000000000E-01 -5.4437811636437E-01  1.5566171939987E+00
    81  8.0000000000000E-01 -5.6783222363128E-01  1.5309691852176E+00
    82  8.1000000000000E-01 -5.8764947585162E-01  1.5002197484253E+00
    83  8.2000000000000E-01 -6.0372535566865E-01  1.4641942967685E+00
    84  8.3000000000000E-01 -6.1597921311793E-01  1.4227650675096E+00
    85  8.4000000000000E-01 -6.2435685101835E-01  1.3758577095203E+00
    86  8.5000000000000E-01 -6.2883283889843E-01  1.3234571856024E+00
    87  8.6000000000000E-01 -6.2941249407252E-01  1.2656128354669E+00
    88  8.7000000000000E-01 -6.2613347322685E-01  1.2024424578688E+00
    89  8.8000000000000E-01 -6.1906692397914E-01  1.1341352864122E+00
    90  8.9000000000000E-01 -6.0831815323198E-01  1.0609537526303E+00
    91  9.0000000000000E-01 -5.9402677761934E-01  9.8323395177963E-01
    92  9.1000000000000E-01 -5.7636633078469E-01  9.0138475093601E-01
    93  9.2000000000000E-01 -5.5554331244695E-01  8.1588550499306E-01
    94  9.3000000000000E-01 -5.3179567500133E-01  7.2728237351058E-01
    95  9.4000000000000E-01 -5.0539075454649E-01  6.3618325949535E-01
    96  9.5000000000000E-01 -4.7662266449465E-01  5.4325141952985E-01
    97  9.6000000000000E-01 -4.4580918106965E-01  4.4919782260580E-01
    98  9.7000000000000E-01 -4.1328816078929E-01  3.5477236196623E-01
    99  9.8000000000000E-01 -3.7941354022375E-01  2.6075404962242E-01
   100  9.9000000000000E-01 -3.4455097770037E-01  1.6794034643947E-01
   101  1.0000000000000E+00 -3.0907320496500E-01  7.7135801232324E-02
   102  1.0100000000000E+00 -2.7335516392122E-01 -1.0859810286965E-02
   103  1.0200000000000E+00 -2.3776900928106E-01 -9.5263642032825E-02
   104  1.0300000000000E+00 -2.0267906212704E-01 -1.7532201494896E-01
   105  1.0400000000000E+00 -1.6843680189184E-01 -2.5032251497801E-01
   106  1.0500000000000E+00 -1.3537598503483E-01 -3.1960572993302E-01
   107  1.0600000000000E+00 -1.0380797767966E-01 -3.8257640674611E-01
   108  1.0700000000000E+00 -7.4017386682162E-02 -4.3871381816849E-01
   109  1.0800000000000E+00 -4.6258069036824E-02 -4.8758114001290E-01
   110  1.0900000000000E+00 -2.0749593284520E-02 -5.2883365624293E-01
   111  1.1000000000000E+00  2.3257812383278E-03 -5.6222562935166E-01
   112  1.1100000000000E+00  2.2825550759875E-02 -5.8761569724936E-01
   113  1.1200000000000E+00  4.0648793011654E-02 -6.0497068468777E-01
   114  1.1300000000000E+00  5.5737338374472E-02 -6.1436774686423E-01
   115  1.1400000000000E+00  6.8076264277314E-02 -6.1599479430594E-01
   116  1.1500000000000E+00  7.7693704024221E-02 -6.1014918131842E-01
   117  1.1600000000000E+00  8.4659974574648E-02 -5.9723467395647E-01
   118  1.1700000000000E+00  8.9086041354083E-02 -5.7775674759306E-01
   119  1.1800000000000E+00  9.1121351401393E-02 -5.5231629740948E-01
   120  1.1900000000000E+00  9.0951079192198E-02 -5.2160187794184E-01
   121  1.2000000000000E+00  8.8792840080620E-02 -4.8638061337064E-01
   122  1.2100000000000E+00  8.4892945777150E-02 -4.4748797485727E-01
   123  1.2200000000000E+00  7.9521480074407E-02 -4.0581408050092E-01
   124  1.2300000000000E+00  7.2963858732590E-02 -3.6227920955359E-01
   125  1.2400000000000E+00  6.5513393217118E-02 -3.1781311123471E-01
   126  1.2500000000000E+00  5.7465665208374E-02 -2.7334034069008E-01
   127  1.2600000000000E+00  4.9112901571663E-02 -2.2976565328048E-01
   128  1.2700000000000E+00  4.0738422929855E-02 -1.8795964752720E-01
   129  1.2800000000000E+00  3.2611295964708E-02 -1.4874486882396E-01
   130  1.2900000000000E+00  2.4980451979771E-02 -1.1288259286999E-01
   131  1.3000000000000E+00  1.8067817281342E-02 -8.1059043841742E-02
   132  1.3100000000000E+00  1.2071463462433E-02 -5.3875891260454E-02
   133  1.3200000000000E+00  7.1582301458636E-03 -3.1842646859427E-02
   134  1.3300000000000E+00  3.4602807680850E-03 -1.5370539698531E-02
   135  1.3400000000000E+00  1.0636633871924E-03 -4.7264999509674E-03
   136  1.3500000000000E+00  6.2801741406024E-05 -2.7969870345689E-04
   137  1.3600000000000E+00 -3.2668933751593E-06  1.4561664651794E-05
   138  1.3700000000000E+00 -6.2084517600202E-07  2.7609312069206E-06
   139  1.38 -0.  0.
   140  1.39  0.  0.
   141  1.40  0.  0.
   142  1.41  0.  0.
   143  1.42  0.  0.
   144  1.43  0.  0.
   145  1.44  0.  0.
   146  1.45  0.  0.
   147  1.46  0.  0.
   148  1.47  0.  0.
   149  1.48  0.  0.
   150  1.49  0.  0.
   151  1.50  0.  0.
   152  1.51  0.  0.
   153  1.52  0.  0.
   154  1.53  0.  0.
   155  1.54  0.  0.
   156  1.55  0.  0.
   157  1.56  0.  0.
   158  1.57  0.  0.
   159  1.58  0.  0.
   160  1.59  0.  0.
   161  1.60  0.  0.
   162  1.61  0.  0.
   163  1.62  0.  0.
   164  1.63  0.  0.
   165  1.64  0.  0.
   166  1.65  0.  0.
   167  1.66  0.  0.
   168  1.67  0.  0.
   169  1.68  0.  0.
   170  1.69  0.  0.
   171  1.70  0.  0.
   172  1.71  0.  0.
   173  1.72  0.  0.
   174  1.73  0.  0.
   175  1.74  0.  0.
   176  1.75  0.  0.
   177  1.76  0.  0.
   178  1.77  0.  0.
   179  1.78  0.  0.
   180  1.79  0.  0.
   181  1.80  0.  0.
   182  1.81  0.  0.
   183  1.82  0.  0.
   184  1.83  0.  0.
   185  1.84  0.  0.
   186  1.85  0.  0.
   187  1.86  0.  0.
   188  1.87  0.  0.
   189  1.88  0.  0.
   190  1.89  0.  0.
   191  1.90  0.  0.
   192  1.91  0.  0.
   193  1.92  0.  0.
   194  1.93  0.  0.
   195  1.94  0.  0.
   196  1.95  0.  0.
   197  1.96  0.  0.
   198  1.97  0.  0.
   199  1.98  0.  0.
   200  1.99  0.  0.
   201  2.00  0.  0.
   202  2.01  0.  0.
   203  2.02  0.  0.
   204  2.03  0.  0.
   205  2.04  0.  0.
   206  2.05  0.  0.
   207  2.06  0.  0.
   208  2.07  0.  0.
   209  2.08  0.  0.
   210  2.09  0.  0.
   211  2.10  0.  0.
   212  2.11  0.  0.
   213  2.12  0.  0.
   214  2.13  0.  0.
   215  2.14  0.  0.
   216  2.15  0.  0.
   217  2.16  0.  0.
   218  2.17  0.  0.
   219  2.18  0.  0.
   220  2.19  0.  0.
   221  2.20  0.  0.
   222  2.21  0.  0.
   223  2.22  0.  0.
   224  2.23  0.  0.
   225  2.24  0.  0.
   226  2.25  0.  0.
   227  2.26  0.  0.
   228  2.27  0.  0.
   229  2.28  0.  0.
   230  2.29  0.  0.
   231  2.30  0.  0.
   232  2.31  0.  0.
   233  2.32  0.  0.
   234  2.33  0.  0.
   235  2.34  0.  0.
   236  2.35  0.  0.
   237  2.36  0.  0.
   238  2.37  0.  0.
   239  2.38  0.  0.
   240  2.39  0.  0.
   241  2.40  0.  0.
   242  2.41  0.  0.
   243  2.42  0.  0.
   244  2.43  0.  0.
   245  2.44  0.  0.
   246  2.45  0.  0.
   247  2.46  0.  0.
   248  2.47  0.  0.
   249  2.48  0.  0.
   250  2.49  0.  0.
   251  2.50  0.  0.
   252  2.51  0.  0.
   253  2.52  0.  0.
   254  2.53  0.  0.
   255  2.54  0.  0.
   256  2.55  0.  0.
   257  2.56  0.  0.
   258  2.57  0.  0.
   259  2.58  0.  0.
   260  2.59  0.  0.
   261  2.60  0.  0.
   262  2.61  0.  0.
   263  2.62  0.  0.
   264  2.63  0.  0.
   265  2.64  0.  0.
   266  2.65  0.  0.
   267  2.66  0.  0.
   268  2.67  0.  0.
   269  2.68  0.  0.
   270  2.69  0.  0.
   271  2.70  0.  0.
   272  2.71  0.  0.
   273  2.72  0.  0.
   274  2.73  0.  0.
   275  2.74  0.  0.
   276  2.75  0.  0.
   277  2.76  0.  0.
   278  2.77  0.  0.
   279  2.78  0.  0.
   280  2.79  0.  0.
   281  2.80  0.  0.
   282  2.81  0.  0.
   283  2.82  0.  0.
   284  2.83  0.  0.
   285  2.84  0.  0.
   286  2.85  0.  0.
   287  2.86  0.  0.
   288  2.87  0.  0.
   289  2.88  0.  0.
   290  2.89  0.  0.
   291  2.90  0.  0.
   292  2.91  0.  0.
   293  2.92  0.  0.
   294  2.93  0.  0.
   295  2.94  0.  0.
   296  2.95  0.  0.
   297  2.96  0.  0.
   298  2.97  0.  0.
   299  2.98  0.  0.
   300  2.99  0.  0.
   301  3.00  0.  0.
   302  3.01  0.  0.
   303  3.02  0.  0.
   304  3.03  0.  0.
   305  3.04  0.  0.
   306  3.05  0.  0.
   307  3.06  0.  0.
   308  3.07  0.  0.
   309  3.08  0.  0.
   310  3.09  0.  0.
   311  3.10  0.  0.
   312  3.11  0.  0.
   313  3.12  0.  0.
   314  3.13  0.  0.
   315  3.14  0.  0.
   316  3.15  0.  0.
   317  3.16  0.  0.
   318  3.17  0.  0.
   319  3.18  0.  0.
   320  3.19  0.  0.
   321  3.20  0.  0.
   322  3.21  0.  0.
   323  3.22  0.  0.
   324  3.23  0.  0.
   325  3.24  0.  0.
   326  3.25  0.  0.
   327  3.26  0.  0.
   328  3.27  0.  0.
   329  3.28  0.  0.
   330  3.29  0.  0.
   331  3.30  0.  0.
   332  3.31  0.  0.
   333  3.32  0.  0.
   334  3.33  0.  0.
   335  3.34  0.  0.
   336  3.35  0.  0.
   337  3.36  0.  0.
   338  3.37  0.  0.
   339  3.38  0.  0.
   340  3.39  0.  0.
   341  3.40  0.  0.
   342  3.41  0.  0.
   343  3.42  0.  0.
   344  3.43  0.  0.
   345  3.44  0.  0.
   346  3.45  0.  0.
   347  3.46  0.  0.
   348  3.47  0.  0.
   349  3.48  0.  0.
   350  3.49  0.  0.
   351  3.50  0.  0.
   352  3.51  0.  0.
   353  3.52  0.  0.
   354  3.53  0.  0.
   355  3.54  0.  0.
   356  3.55  0.  0.
   357  3.56  0.  0.
   358  3.57  0.  0.
   359  3.58  0.  0.
   360  3.59  0.  0.
   361  3.60  0.  0.
   362  3.61  0.  0.
   363  3.62  0.  0.
   364  3.63  0.  0.
   365  3.64  0.  0.
   366  3.65  0.  0.
   367  3.66  0.  0.
   368  3.67  0.  0.
   369  3.68  0.  0.
   370  3.69  0.  0.
   371  3.70  0.  0.
   372  3.71  0.  0.
   373  3.72  0.  0.
   374  3.73  0.  0.
   375  3.74  0.  0.
   376  3.75  0.  0.
   377  3.76  0.  0.
   378  3.77  0.  0.
   379  3.78  0.  0.
   380  3.79  0.  0.
   381  3.80  0.  0.
   382  3.81  0.  0.
   383  3.82  0.  0.
   384  3.83  0.  0.
   385  3.84  0.  0.
   386  3.85  0.  0.
   387  3.86  0.  0.
   388  3.87  0.  0.
   389  3.88  0.  0.
   390  3.89  0.  0.
   391  3.90  0.  0.
   392  3.91  0.  0.
   393  3.92  0.  0.
   394  3.93  0.  0.
   395  3.94  0.  0.
   396  3.95  0.  0.
   397  3.96  0.  0.
   398  3.97  0.  0.
   399  3.98  0.  0.
   400  3.99  0.  0.
   401  4.00  0.  0.
   402  4.01  0.  0.
   403  4.02  0.  0.
   404  4.03  0.  0.
   405  4.04  0.  0.
   406  4.05  0.  0.
   407  4.06  0.  0.
   408  4.07  0.  0.
   409  4.08  0.  0.
   410  4.09  0.  0.
   411  4.10  0.  0.
   412  4.11  0.  0.
   413  4.12  0.  0.
   414  4.13  0.  0.
   415  4.14  0.  0.
   416  4.15  0.  0.
   417  4.16  0.  0.
   418  4.17  0.  0.
   419  4.18  0.  0.
   420  4.19  0.  0.
   421  4.20  0.  0.
   422  4.21  0.  0.
   423  4.22  0.  0.
   424  4.23  0.  0.
   425  4.24  0.  0.
   426  4.25  0.  0.
   427  4.26  0.  0.
   428  4.27  0.  0.
   429  4.28  0.  0.
   430  4.29  0.  0.
   431  4.30  0.  0.
   432  4.31  0.  0.
   433  4.32  0.  0.
   434  4.33  0.  0.
   435  4.34  0.  0.
   436  4.35  0.  0.
   437  4.36  0.  0.
   438  4.37  0.  0.
   439  4.38  0.  0.
   440  4.39  0.  0.
   441  4.40  0.  0.
   442  4.41  0.  0.
   443  4.42  0.  0.
   444  4.43  0.  0.
   445  4.44  0.  0.
   446  4.45  0.  0.
   447  4.46  0.  0.
   448  4.47  0.  0.
   449  4.48  0.  0.
   450  4.49  0.  0.
   451  4.50  0.  0.
   452  4.51  0.  0.
   453  4.52  0.  0.
   454  4.53  0.  0.
   455  4.54  0.  0.
   456  4.55  0.  0.
   457  4.56  0.  0.
   458  4.57  0.  0.
   459  4.58  0.  0.
   460  4.59  0.  0.
   461  4.60  0.  0.
   462  4.61  0.  0.
   463  4.62  0.  0.
   464  4.63  0.  0.
   465  4.64  0.  0.
   466  4.65  0.  0.
   467  4.66  0.  0.
   468  4.67  0.  0.
   469  4.68  0.  0.
   470  4.69  0.  0.
   471  4.70  0.  0.
   472  4.71  0.  0.
   473  4.72  0.  0.
   474  4.73  0.  0.
   475  4.74  0.  0.
   476  4.75  0.  0.
   477  4.76  0.  0.
   478  4.77  0.  0.
   479  4.78  0.  0.
   480  4.79  0.  0.
   481  4.80  0.  0.
   482  4.81  0.  0.
   483  4.82  0.  0.
   484  4.83  0.  0.
   485  4.84  0.  0.
   486  4.85  0.  0.
   487  4.86  0.  0.
   488  4.87  0.  0.
   489  4.88  0.  0.
   490  4.89  0.  0.
   491  4.90  0.  0.
   492  4.91  0.  0.
   493  4.92  0.  0.
   494  4.93  0.  0.
   495  4.94  0.  0.
   496  4.95  0.  0.
   497  4.96  0.  0.
   498  4.97  0.  0.
   499  4.98  0.  0.
   500  4.99  0.  0.
   501  5.00  0.  0.
   502  5.01  0.  0.
   503  5.02  0.  0.
   504  5.03  0.  0.
   505  5.04  0.  0.
   506  5.05  0.  0.
   507  5.06  0.  0.
   508  5.07  0.  0.
   509  5.08  0.  0.
   510  5.09  0.  0.
   511  5.10  0.  0.
   512  5.11  0.  0.
   513  5.12  0.  0.
   514  5.13  0.  0.
   515  5.14  0.  0.
   516  5.15  0.  0.
   517  5.16  0.  0.
   518  5.17  0.  0.
   519  5.18  0.  0.
   520  5.19  0.  0.
   521  5.20  0.  0.
   522  5.21  0.  0.
   523  5.22  0.  0.
   524  5.23  0.  0.
   525  5.24  0.  0.
   526  5.25  0.  0.
   527  5.26  0.  0.
   528  5.27  0.  0.
   529  5.28  0.  0.
   530  5.29  0.  0.
   531  5.30  0.  0.
   532  5.31  0.  0.
   533  5.32  0.  0.
   534  5.33  0.  0.
   535  5.34  0.  0.
   536  5.35  0.  0.
   537  5.36  0.  0.
   538  5.37  0.  0.
   539  5.38  0.  0.
   540  5.39  0.  0.
   541  5.40  0.  0.
   542  5.41  0.  0.
   543  5.42  0.  0.
   544  5.43  0.  0.
   545  5.44  0.  0.
   546  5.45  0.  0.
   547  5.46  0.  0.
   548  5.47  0.  0.
   549  5.48  0.  0.
   550  5.49  0.  0.
   551  5.50  0.  0.
   552  5.51  0.  0.
   553  5.52  0.  0.
   554  5.53  0.  0.
   555  5.54  0.  0.
   556  5.55  0.  0.
   557  5.56  0.  0.
   558  5.57  0.  0.
   559  5.58  0.  0.
   560  5.59  0.  0.
   561  5.60  0.  0.
   562  5.61  0.  0.
   563  5.62  0.  0.
   564  5.63  0.  0.
   565  5.64  0.  0.
   566  5.65  0.  0.
   567  5.66  0.  0.
   568  5.67  0.  0.
   569  5.68  0.  0.
   570  5.69  0.  0.
   571  5.70  0.  0.
   572  5.71  0.  0.
   573  5.72  0.  0.
   574  5.73  0.  0.
   575  5.74  0.  0.
   576  5.75  0.  0.
   577  5.76  0.  0.
   578  5.77  0.  0.
   579  5.78  0.  0.
   580  5.79  0.  0.
   581  5.80  0.  0.
   582  5.81  0.  0.
   583  5.82  0.  0.
   584  5.83  0.  0.
   585  5.84  0.  0.
   586  5.85  0.  0.
   587  5.86  0.  0.
   588  5.87  0.  0.
   589  5.88  0.  0.
   590  5.89  0.  0.
   591  5.90  0.  0.
   592  5.91  0.  0.
   593  5.92  0.  0.
   594  5.93  0.  0.
   595  5.94  0.  0.
   596  5.95  0.  0.
   597  5.96  0.  0.
   598  5.97  0.  0.
   599  5.98  0.  0.
   600  5.99  0.  0.
   1                        -4.6892421738870E+00 -1.1042472098259E+00
     1  0.0000000000000E+00 -2.9544231228140E-09  7.1024021178201E-09
     2  1.0000000000000E-02  2.0756377833937E-03 -8.5927628152212E-04
     3  2.0000000000000E-02  8.2944819602764E-03 -3.4336156613361E-03
     4  3.0000000000000E-02  1.8632298480026E-02 -7.7124337520525E-03
     5  4.0000000000000E-02  3.3048610718297E-02 -1.3677707783300E-02
     6  5.0000000000000E-02  5.1486576248595E-02 -2.1303419107638E-02
     7  6.0000000000000E-02  7.3872827292500E-02 -3.0554803648172E-02
     8  7.0000000000000E-02  1.0011728737279E-01 -4.1387440196528E-02
     9  8.0000000000000E-02  1.3011297964814E-01 -5.3746213572245E-02
    10  9.0000000000000E-02  1.6373584491597E-01 -6.7564195724992E-02
    11  1.0000000000000E-01  2.0084458925579E-01 -8.2761492724974E-02
    12  1.1000000000000E-01  2.4128058268680E-01 -9.9244109100405E-02
    13  1.2000000000000E-01  2.8486783098229E-01 -1.1690288303327E-01
    14  1.3000000000000E-01  3.3141304288823E-01 -1.3561254644557E-01
    15  1.4000000000000E-01  3.8070581441984E-01 -1.5523096296218E-01
    16  1.5000000000000E-01  4.3251895065951E-01 -1.7559859413203E-01
    17  1.6000000000000E-01  4.8660894357425E-01 -1.9653824017473E-01
    18  1.7000000000000E-01  5.4271662184566E-01 -2.1785509598005E-01
    19  1.8000000000000E-01  6.0056798561537E-01 -2.3933715624890E-01
    20  1.9000000000000E-01  6.5987523546240E-01 -2.6075599568641E-01
    21  2.0000000000000E-01  7.2033800092615E-01 -2.8186794122766E-01
    22  2.1000000000000E-01  7.8164476956554E-01 -3.0241564361478E-01
    23  2.2000000000000E-01  8.4347451300211E-01 -3.2213004548543E-01
    24  2.3000000000000E-01  9.0549850174326E-01 -3.4073273273198E-01
    25  2.4000000000000E-01  9.6738229593530E-01 -3.5793864550987E-01
    26  2.5000000000000E-01  1.0287878946688E+00 -3.7345911517867E-01
    27  2.6000000000000E-01  1.0893760221675E+00 -3.8700518391225E-01
    28  2.7000000000000E-01  1.1488085252433E+00 -3.9829115496656E-01
    29  2.8000000000000E-01  1.2067508529016E+00 -4.0703831388075E-01
    30  2.9000000000000E-01  1.2628745860210E+00 -4.1297875442220E-01
    31  3.0000000000000E-01  1.3168599826993E+00 -4.1585923805396E-01
    32  3.1000000000000E-01  1.3683985032128E+00 -4.1544501225584E-01
    33  3.2000000000000E-01  1.4171952776397E+00 -4.1152351128400E-01
    34  3.3000000000000E-01  1.4629714790803E+00 -4.0390786298292E-01
    35  3.4000000000000E-01  1.5054665660851E+00 -3.9244012710168E-01
    36  3.5000000000000E-01  1.5444403593783E+00 -3.7699419420252E-01
    37  3.6000000000000E-01  1.5796749202149E+00 -3.5747827962864E-01
    38  3.7000000000000E-01  1.6109762006966E+00 -3.3383695402215E-01
    39  3.8000000000000E-01  1.6381754400415E+00 -3.0605266041396E-01
    40  3.9000000000000E-01  1.6611302850728E+00 -2.7414667776490E-01
    41  4.0000000000000E-01  1.6797256179855E+00 -2.3817950181258E-01
    42  4.1000000000000E-01  1.6938740796567E+00 -1.9825062592539E-01
    43  4.2000000000000E-01  1.7035162822723E+00 -1.5449771712011E-01
    44  4.3000000000000E-01  1.7086207107353E+00 -1.0709519517531E-01
    45  4.4000000000000E-01  1.7091833180641E+00 -5.6252235573769E-02
    46  4.5000000000000E-01  1.7052268256596E+00 -2.2102295299659E-03
    47  4.6000000000000E-01  1.6967997447842E+00  5.4760253693279E-02
    48  4.7000000000000E-01  1.6839751407305E+00  1.1436294589474E-01
    49  4.8000000000000E-01  1.6668491658431E+00  1.7627973424475E-01
    50  4.9000000000000E-01  1.6455393916832E+00  2.4017481601634E-01
    51  5.0000000000000E-01  1.6201829740942E+00  3.0569907201448E-01
    52  5.1000000000000E-01  1.5909346876535E+00  3.7249457183087E-01
    53  5.2000000000000E-01  1.5579648679195E+00  4.4019912084010E-01
    54  5.3000000000000E-01  1.5214573009433E+00  5.0845075768062E-01
    55  5.4000000000000E-01  1.4816070996987E+00  5.7689211188411E-01
    56  5.5000000000000E-01  1.4386186063670E+00  6.4517453433463E-01
    57  5.6000000000000E-01  1.3927033578226E+00  7.1296191830707E-01
    58  5.7000000000000E-01  1.3440781492230E+00  7.7993413586231E-01
    59  5.8000000000000E-01  1.2929632273735E+00  8.4579002321758E-01
    60  5.9000000000000E-01  1.2395806415838E+00  9.1024985918146E-01
    61  6.0000000000000E-01  1.1841527751503E+00  9.7305729261247E-01
    62  6.1000000000000E-01  1.1269010754908E+00  1.0339806878667E+00
    63  6.2000000000000E-01  1.0680449954530E+00  1.0928138710457E+00
    64  6.3000000000000E-01  1.0078011525323E+00  1.1493762742233E+00
    65  6.4000000000000E-01  9.4638270682187E-01  1.2035124893861E+00
    66  6.5000000000000E-01  8.8399895261079E-01  1.2550912582139E+00
    67  6.6000000000000E-01  8.2085511278957E-01  1.3040039377216E+00
    68  6.7000000000000E-01  7.5715231976329E-01  1.3501624948305E+00
    69  6.8000000000000E-01  6.9308776154162E-01  1.3934970948190E+00
    70  6.9000000000000E-01  6.2885496720159E-01  1.4339533590236E+00
    71  7.0000000000000E-01  5.6464420211827E-01  1.4714893758377E+00
    72  7.1000000000000E-01  5.0064294033053E-01  1.5060725557746E+00
    73  7.2000000000000E-01  4.3703637923591E-01  1.5376764259165E+00
    74  7.3000000000000E-01  3.7400796055469E-01  1.5662774613298E+00
    75  7.4000000000000E-01  3.1173986120899E-01  1.5918520509051E+00
    76  7.5000000000000E-01  2.5041341844827E-01  1.6143736925318E+00
    77  7.6000000000000E-01  1.9020945521279E-01  1.6338105075803E+00
    78  7.7000000000000E-01  1.3130847433449E-01  1.6501231574059E+00
    79  7.8000000000000E-01  7.3890693678060E-02  1.6632632351594E+00
    80  7.9000000000000E-01  1.8135898651463E-02  1.6731721947647E+00
    81  8.0000000000000E-01 -3.5776906430188E-02  1.6797808657546E+00
    82  8.1000000000000E-01 -8.7670060974497E-02  1.6830095880254E+00
    83  8.2000000000000E-01 -1.3736803142771E-01  1.6827689847978E+00
    84  8.3000000000000E-01 -1.8469841547352E-01  1.6789613755196E+00
    85  8.4000000000000E-01 -2.2949316062853E-01  1.6714828134930E+00
    86  8.5000000000000E-01 -2.7158998403979E-01  1.6602257160512E+00
    87  8.6000000000000E-01 -3.1083397371921E-01  1.6450820385486E+00
    88  8.7000000000000E-01 -3.4707934518355E-01  1.6259469276756E+00
    89  8.8000000000000E-01 -3.8019132166403E-01  1.6027227750373E+00
    90  8.9000000000000E-01 -4.1004810086114E-01  1.5753235789333E+00
    91  9.0000000000000E-01 -4.3654286678591E-01  1.5436795111611E+00
    92  9.1000000000000E-01 -4.5958580167504E-01  1.5077415767616E+00
    93  9.2000000000000E-01 -4.7910605040028E-01  1.4674862481683E+00
    94  9.3000000000000E-01 -4.9505358829678E-01  1.4229199514268E+00
    95  9.4000000000000E-01 -5.0740094297479E-01  1.3740832811652E+00
    96  9.5000000000000E-01 -5.1614472148955E-01  1.3210548228899E+00
    97  9.6000000000000E-01 -5.2130689623621E-01  1.2639544659969E+00
    98  9.7000000000000E-01 -5.2293580609501E-01  1.2029460985565E+00
    99  9.8000000000000E-01 -5.2110683362938E-01  1.1382395853525E+00
   100  9.9000000000000E-01 -5.1592272447136E-01  1.0700919436533E+00
   101  1.0000000000000E+00 -5.0751352131409E-01  9.9880764652646E-01
   102  1.0100000000000E+00 -4.9603609205244E-01  9.2473800087411E-01
   103  1.0200000000000E+00 -4.8167323943007E-01  8.4827956643169E-01
   104  1.0300000000000E+00 -4.6463238790890E-01  7.6987160234667E-01
   105  1.0400000000000E+00 -4.4514385219102E-01  6.8999254918647E-01
   106  1.0500000000000E+00 -4.2345870071857E-01  6.0915557589043E-01
   107  1.0600000000000E+00 -3.9984623636358E-01  5.2790324281017E-01
   108  1.0700000000000E+00 -3.7459112517853E-01  4.4680135304528E-01
   109  1.0800000000000E+00 -3.4799021235415E-01  3.6643208439567E-01
   110  1.0900000000000E+00 -3.2034907219407E-01  2.8738651286111E-01
   111  1.1000000000000E+00 -2.9197834581255E-01  2.1025665534886E-01
   112  1.1100000000000E+00 -2.6318992622464E-01  1.3562717369426E-01
   113  1.1200000000000E+00 -2.3429305536080E-01  6.4066893855160E-02
   114  1.1300000000000E+00 -2.0559040120587E-01 -3.8796970204027E-03
   115  1.1400000000000E+00 -1.7737418560062E-01 -6.7700807357845E-02
   116  1.1500000000000E+00 -1.4992243420223E-01 -1.2692538122158E-01
   117  1.1600000000000E+00 -1.2349541962488E-01 -1.8113065240842E-01
   118  1.1700000000000E+00 -9.8332366842921E-02 -2.2994904810991E-01
   119  1.1800000000000E+00 -7.4648486589231E-02 -2.7307428592779E-01
   120  1.1900000000000E+00 -5.2632397777035E-02 -3.1026651948379E-01
   121  1.2000000000000E+00 -3.2443993375143E-02 -3.4135640462927E-01
   122  1.2100000000000E+00 -1.4212800038515E-02 -3.6624796461720E-01
   123  1.2200000000000E+00  1.9634298007764E-03 -3.8492123941207E-01
   124  1.2300000000000E+00  1.6020782731281E-02 -3.9743783342197E-01
   125  1.2400000000000E+00  2.7930232118363E-02 -4.0394323625350E-01
   126  1.2500000000000E+00  3.7697378797797E-02 -4.0466506358849E-01
   127  1.2600000000000E+00  4.5361598375683E-02 -3.9990986460773E-01
   128  1.2700000000000E+00  5.0994615490415E-02 -3.9005855869751E-01
   129  1.2800000000000E+00  5.4698531744924E-02 -3.7556057464277E-01
   130  1.2900000000000E+00  5.6603340596204E-02 -3.5692677644168E-01
   131  1.3000000000000E+00  5.6863972601404E-02 -3.3472128460188E-01
   132  1.3100000000000E+00  5.5656923727093E-02 -3.0955232442347E-01
   133  1.3200000000000E+00  5.3176527580058E-02 -2.8206225236496E-01
   134  1.3300000000000E+00  4.9630939648647E-02 -2.5291692909843E-01
   135  1.3400000000000E+00  4.5237907470646E-02 -2.2279462184993E-01
   136  1.3500000000000E+00  4.0220405149149E-02 -1.9237462943786E-01
   137  1.3600000000000E+00  3.4802213172976E-02 -1.6232582958935E-01
   138  1.3700000000000E+00  2.9203531777646E-02 -1.3329536301543E-01
   139  1.3800000000000E+00  2.3636707130130E-02 -1.0589764743340E-01
   140  1.3900000000000E+00  1.8304617472996E-02 -8.0708678099623E-02
   141  1.4000000000000E+00  1.3393766940622E-02 -5.8250464950485E-02
   142  1.4100000000000E+00  9.0672250127372E-03 -3.8975086125969E-02
   143  1.4200000000000E+00  5.4666095955109E-03 -2.3266780298046E-02
   144  1.4300000000000E+00  2.7089586586496E-03 -1.1435477196829E-02
   145  1.4400000000000E+00  8.7687849277039E-04 -3.6772618607271E-03